<event>
 8    1  0.1093753E+005  0.1043930E+01  0.7957747E-01            NaN
         13   -1    0    0    0    0  0.00000000000E+00  0.00000000000E+00  0.74505805969E-08  0.10566000000E+00  0.10566000000E+00 0. -1.
     999900   -1    0    0    0    0 -0.00000000000E+00 -0.00000000000E+00 -0.74505805969E-08  0.93827000000E+00  0.93827000000E+00 0. -1.
     999902    2    1    2    0    0  0.40743465996E-02  0.10863798583E-01 -0.20401357888E-01  0.10204600655E+01  0.10201901330E+01 0.  0.
     999903    2    3    3    0    0 -0.12509535981E+00 -0.70737148844E-02 -0.31547757400E-01  0.13077989286E+00  0.20229505474E-01 0.  0.
         14    1    1    2    0    0 -0.40743465996E-02 -0.10863798583E-01  0.20401357888E-01  0.23469934460E-01  0.00000000000E+00 0.  1.
     999901    1    3    3    0    0  0.12916970641E+00  0.17937513468E-01  0.11146399512E-01  0.88968017268E+00  0.88000000000E+00 0. -1.
        -11    1    4    4    0    0 -0.77795427559E-01  0.41458298445E-02 -0.24420336293E-01  0.81645149273E-01  0.51100000000E-03 0.  1.
         11    1    4    4    0    0 -0.47299932247E-01 -0.11219544729E-01 -0.71274211069E-02  0.49134743584E-01  0.51100000000E-03 0. -1.
</event>
<event>
 8    1  0.1093753E+005  0.1043930E+01  0.7957747E-01            NaN
         13   -1    0    0    0    0  0.00000000000E+00  0.00000000000E+00  0.74505805969E-08  0.10566000000E+00  0.10566000000E+00 0.  1.
     999900   -1    0    0    0    0 -0.00000000000E+00 -0.00000000000E+00 -0.74505805969E-08  0.93827000000E+00  0.93827000000E+00 0.  1.
     999902    2    1    2    0    0  0.20321369145E-01  0.81749090937E-02  0.82401775293E-02  0.10205272713E+01  0.10202589004E+01 0.  0.
     999903    2    3    3    0    0 -0.10468290339E+00 -0.44751693257E-01  0.56950006741E-01  0.12878743213E+00  0.19536506712E-01 0.  0.
         14    1    1    2    0    0 -0.20321369145E-01 -0.81749090937E-02 -0.82401775293E-02  0.23402728651E-01  0.00000000000E+00 0. -1.
     999901    1    3    3    0    0  0.12500427254E+00  0.52926602350E-01 -0.48709829212E-01  0.89173983922E+00  0.88000000000E+00 0. -1.
        -11    1    4    4    0    0 -0.55481254615E-01 -0.25233779650E-01  0.19685918851E-01  0.64052398637E-01  0.51100000000E-03 0.  1.
         11    1    4    4    0    0 -0.49201648777E-01 -0.19517913607E-01  0.37264087890E-01  0.64735033492E-01  0.51100000000E-03 0. -1.
</event>
<event>
 8    1  0.1093753E+005  0.1043930E+01  0.7957747E-01            NaN
         13   -1    0    0    0    0  0.00000000000E+00  0.00000000000E+00  0.74505805969E-08  0.10566000000E+00  0.10566000000E+00 0.  1.
     999900   -1    0    0    0    0 -0.00000000000E+00 -0.00000000000E+00 -0.74505805969E-08  0.93827000000E+00  0.93827000000E+00 0.  1.
     999902    2    1    2    0    0  0.14320972895E-01 -0.12572497847E-01 -0.65014279190E-02  0.10237947937E+01  0.10235967727E+01 0.  0.
     999903    2    3    3    0    0  0.44742846901E-01 -0.79667298902E-01  0.96816369621E-01  0.13469312910E+00  0.20494602645E-01 0.  0.
         14    1    1    2    0    0 -0.14320972895E-01  0.12572497847E-01  0.65014279190E-02  0.20135206275E-01  0.00000000000E+00 0.  1.
     999901    1    3    3    0    0 -0.30421874006E-01  0.67094801055E-01 -0.10331779754E+00  0.88910166462E+00  0.88000000000E+00 0.  1.
        -11    1    4    4    0    0  0.32525607110E-01 -0.57385206913E-01  0.82123074509E-01  0.10533488301E+00  0.51100000000E-03 0. -1.
         11    1    4    4    0    0  0.12217239791E-01 -0.22282091989E-01  0.14693295112E-01  0.29358246094E-01  0.51100000000E-03 0.  1.
</event>
<event>
 8    1  0.1093753E+005  0.1043930E+01  0.7957747E-01            NaN
         13   -1    0    0    0    0  0.00000000000E+00  0.00000000000E+00  0.74505805969E-08  0.10566000000E+00  0.10566000000E+00 0.  1.
     999900   -1    0    0    0    0 -0.00000000000E+00 -0.00000000000E+00 -0.74505805969E-08  0.93827000000E+00  0.93827000000E+00 0. -1.
     999902    2    1    2    0    0  0.12248666821E-01 -0.18808710594E-01 -0.56888144561E-02  0.10207748700E+01  0.10205122122E+01 0.  0.
     999903    2    3    3    0    0 -0.12617392296E+00 -0.21324322541E-01 -0.11898600677E-01  0.12992937104E+00  0.19117510100E-01 0.  0.
         14    1    1    2    0    0 -0.12248666821E-01  0.18808710594E-01  0.56888144561E-02  0.23155129950E-01  0.00000000000E+00 0.  1.
     999901    1    3    3    0    0  0.13842258978E+00  0.25156119470E-02  0.62097862210E-02  0.89084549901E+00  0.88000000000E+00 0.  1.
        -11    1    4    4    0    0 -0.40443182247E-01 -0.60153782517E-02 -0.12762714935E-01  0.42836710650E-01  0.51100000000E-03 0. -1.
         11    1    4    4    0    0 -0.85730740716E-01 -0.15308944289E-01  0.86411425786E-03  0.87092660387E-01  0.51100000000E-03 0.  1.
</event>
<event>
 8    1  0.1093753E+005  0.1043930E+01  0.7957747E-01            NaN
         13   -1    0    0    0    0  0.00000000000E+00  0.00000000000E+00  0.74505805969E-08  0.10566000000E+00  0.10566000000E+00 0.  1.
     999900   -1    0    0    0    0 -0.00000000000E+00 -0.00000000000E+00 -0.74505805969E-08  0.93827000000E+00  0.93827000000E+00 0. -1.
     999902    2    1    2    0    0  0.16478814259E-01 -0.75673080900E-02 -0.20851382314E-01  0.10162967661E+01  0.10159210211E+01 0.  0.
     999903    2    3    3    0    0  0.86607843518E-01  0.33891617897E-02 -0.95346105418E-01  0.13030151287E+00  0.19370066143E-01 0.  0.
         14    1    1    2    0    0 -0.16478814259E-01  0.75673080900E-02  0.20851382314E-01  0.27633233895E-01  0.00000000000E+00 0.  1.
     999901    1    3    3    0    0 -0.70129029259E-01 -0.10956469880E-01  0.74494723104E-01  0.88599525323E+00  0.88000000000E+00 0.  1.
        -11    1    4    4    0    0  0.11214779756E-01  0.35369671467E-02 -0.22866629555E-01  0.25718189862E-01  0.51100000000E-03 0. -1.
         11    1    4    4    0    0  0.75393063762E-01 -0.14780535702E-03 -0.72479475863E-01  0.10458332301E+00  0.51100000000E-03 0.  1.
</event>
<event>
 8    1  0.1093753E+005  0.1043930E+01  0.7957747E-01            NaN
         13   -1    0    0    0    0  0.00000000000E+00  0.00000000000E+00  0.74505805969E-08  0.10566000000E+00  0.10566000000E+00 0.  1.
     999900   -1    0    0    0    0 -0.00000000000E+00 -0.00000000000E+00 -0.74505805969E-08  0.93827000000E+00  0.93827000000E+00 0.  1.
     999902    2    1    2    0    0 -0.20213557430E-01 -0.10778950184E-01 -0.11896665596E-01  0.10181171287E+01  0.10177898523E+01 0.  0.
     999903    2    3    3    0    0 -0.10443638587E+00  0.15169019234E-01  0.73110695767E-01  0.12963919798E+00  0.18002499224E-01 0.  0.
         14    1    1    2    0    0  0.20213557430E-01  0.10778950184E-01  0.11896665596E-01  0.25812871272E-01  0.00000000000E+00 0. -1.
     999901    1    3    3    0    0  0.84222828440E-01 -0.25947969418E-01 -0.85007361363E-01  0.88847793075E+00  0.88000000000E+00 0.  1.
        -11    1    4    4    0    0 -0.23568998936E-01  0.10327029849E-01  0.21926418742E-01  0.33810859442E-01  0.51100000000E-03 0.  1.
         11    1    4    4    0    0 -0.80867386933E-01  0.48419893855E-02  0.51184277025E-01  0.95828338534E-01  0.51100000000E-03 0. -1.
</event>
<event>
 8    1  0.1093753E+005  0.1043930E+01  0.7957747E-01            NaN
         13   -1    0    0    0    0  0.00000000000E+00  0.00000000000E+00  0.74505805969E-08  0.10566000000E+00  0.10566000000E+00 0.  1.
     999900   -1    0    0    0    0 -0.00000000000E+00 -0.00000000000E+00 -0.74505805969E-08  0.93827000000E+00  0.93827000000E+00 0.  1.
     999902    2    1    2    0    0 -0.12059718230E-01 -0.14444397801E-01 -0.15980853255E-01  0.10192426530E+01  0.10189436297E+01 0.  0.
     999903    2    3    3    0    0 -0.35217344037E-01  0.11889940478E+00  0.15268375512E-01  0.12834795684E+00  0.29372520429E-01 0.  0.
         14    1    1    2    0    0  0.12059718230E-01  0.14444397801E-01  0.15980853255E-01  0.24687347010E-01  0.00000000000E+00 0.  1.
     999901    1    3    3    0    0  0.23157625807E-01 -0.13334380259E+00 -0.31249228768E-01  0.89089469615E+00  0.88000000000E+00 0.  1.
        -11    1    4    4    0    0 -0.31968643715E-01  0.61335794121E-01  0.14567316587E-01  0.70686219696E-01  0.51100000000E-03 0. -1.
         11    1    4    4    0    0 -0.32487003228E-02  0.57563610664E-01  0.70105892567E-03  0.57661737149E-01  0.51100000000E-03 0.  1.
</event>
<event>
 8    1  0.1093753E+005  0.1043930E+01  0.7957747E-01            NaN
         13   -1    0    0    0    0  0.00000000000E+00  0.00000000000E+00  0.74505805969E-08  0.10566000000E+00  0.10566000000E+00 0.  1.
     999900   -1    0    0    0    0 -0.00000000000E+00 -0.00000000000E+00 -0.74505805969E-08  0.93827000000E+00  0.93827000000E+00 0.  1.
     999902    2    1    2    0    0 -0.24968085102E-02  0.11188530949E-01 -0.20853747533E-01  0.10201330241E+01  0.10198554264E+01 0.  0.
     999903    2    3    3    0    0 -0.11132624908E+00  0.43273765342E-01 -0.53981435817E-01  0.13223057833E+00  0.17457890273E-01 0.  0.
         14    1    1    2    0    0  0.24968085102E-02 -0.11188530949E-01  0.20853747533E-01  0.23796975936E-01  0.00000000000E+00 0.  1.
     999901    1    3    3    0    0  0.10882944057E+00 -0.32085234393E-01  0.33127688284E-01  0.88790244573E+00  0.88000000000E+00 0. -1.
        -11    1    4    4    0    0 -0.86760584429E-01  0.30111996810E-01 -0.33983355921E-01  0.97924771957E-01  0.51100000000E-03 0. -1.
         11    1    4    4    0    0 -0.24565664651E-01  0.13161768532E-01 -0.19998079897E-01  0.34305806377E-01  0.51100000000E-03 0.  1.
</event>
<event>
 8    1  0.1093753E+005  0.1043930E+01  0.7957747E-01            NaN
         13   -1    0    0    0    0  0.00000000000E+00  0.00000000000E+00  0.74505805969E-08  0.10566000000E+00  0.10566000000E+00 0.  1.
     999900   -1    0    0    0    0 -0.00000000000E+00 -0.00000000000E+00 -0.74505805969E-08  0.93827000000E+00  0.93827000000E+00 0. -1.
     999902    2    1    2    0    0 -0.22369315671E-01  0.90487598344E-02 -0.14421334471E-02  0.10197567485E+01  0.10194701958E+01 0.  0.
     999903    2    3    3    0    0 -0.86564834858E-01  0.77835379210E-01  0.60392636351E-01  0.13258359606E+00  0.19476204166E-01 0.  0.
         14    1    1    2    0    0  0.22369315671E-01 -0.90487598344E-02  0.14421334471E-02  0.24173251478E-01  0.00000000000E+00 0. -1.
     999901    1    3    3    0    0  0.64195519187E-01 -0.68786619376E-01 -0.61834769798E-01  0.88717315246E+00  0.88000000000E+00 0. -1.
        -11    1    4    4    0    0 -0.59374470113E-01  0.40754374271E-01  0.38270541919E-01  0.81554535271E-01  0.51100000000E-03 0.  1.
         11    1    4    4    0    0 -0.27190364745E-01  0.37081004939E-01  0.22122094432E-01  0.51029060792E-01  0.51100000000E-03 0. -1.
</event>
<event>
 8    1  0.1093753E+005  0.1043930E+01  0.7957747E-01            NaN
         13   -1    0    0    0    0  0.00000000000E+00  0.00000000000E+00  0.74505805969E-08  0.10566000000E+00  0.10566000000E+00 0.  1.
     999900   -1    0    0    0    0 -0.00000000000E+00 -0.00000000000E+00 -0.74505805969E-08  0.93827000000E+00  0.93827000000E+00 0.  1.
     999902    2    1    2    0    0 -0.17758647476E-01 -0.13594261811E-01  0.94095129291E-02  0.10196666027E+01  0.10193778829E+01 0.  0.
     999903    2    3    3    0    0 -0.12785199135E+00 -0.85829592336E-02  0.19327429601E-01  0.13273705501E+00  0.28736342071E-01 0.  0.
         14    1    1    2    0    0  0.17758647476E-01  0.13594261811E-01 -0.94095129291E-02  0.24263397287E-01  0.00000000000E+00 0.  1.
     999901    1    3    3    0    0  0.11009334388E+00 -0.50113025770E-02 -0.99179166717E-02  0.88692954770E+00  0.88000000000E+00 0.  1.
        -11    1    4    4    0    0 -0.31259118749E-01  0.40571446424E-02  0.15781194691E-01  0.35254789100E-01  0.51100000000E-03 0. -1.
         11    1    4    4    0    0 -0.96592872602E-01 -0.12640103876E-01  0.35462349095E-02  0.97482265908E-01  0.51100000000E-03 0.  1.
</event>
<event>
 8    1  0.1093753E+005  0.1043930E+01  0.7957747E-01            NaN
         13   -1    0    0    0    0  0.00000000000E+00  0.00000000000E+00  0.74505805969E-08  0.10566000000E+00  0.10566000000E+00 0. -1.
     999900   -1    0    0    0    0 -0.00000000000E+00 -0.00000000000E+00 -0.74505805969E-08  0.93827000000E+00  0.93827000000E+00 0.  1.
     999902    2    1    2    0    0  0.74712942697E-02 -0.12299019620E-01  0.16088781768E-01  0.10223444720E+01  0.10221165708E+01 0.  0.
     999903    2    3    3    0    0  0.12180780141E+00  0.48846285025E-01  0.23452127061E-02  0.13273755268E+00  0.19765065780E-01 0.  0.
         14    1    1    2    0    0 -0.74712942697E-02  0.12299019620E-01 -0.16088781768E-01  0.21585528033E-01  0.00000000000E+00 0.  1.
     999901    1    3    3    0    0 -0.11433650714E+00 -0.61145304645E-01  0.13743569062E-01  0.88960691928E+00  0.88000000000E+00 0.  1.
        -11    1    4    4    0    0  0.11312023720E+00  0.49719465573E-01  0.47819994529E-02  0.12365816577E+00  0.51100000000E-03 0. -1.
         11    1    4    4    0    0  0.86875642051E-02 -0.87318054859E-03 -0.24367867468E-02  0.90793869142E-02  0.51100000000E-03 0.  1.
</event>
<event>
 8    1  0.1093753E+005  0.1043930E+01  0.7957747E-01            NaN
         13   -1    0    0    0    0  0.00000000000E+00  0.00000000000E+00  0.74505805969E-08  0.10566000000E+00  0.10566000000E+00 0. -1.
     999900   -1    0    0    0    0 -0.00000000000E+00 -0.00000000000E+00 -0.74505805969E-08  0.93827000000E+00  0.93827000000E+00 0. -1.
     999902    2    1    2    0    0 -0.14265324179E-01  0.16878314704E-01  0.78718505885E-02  0.10204706093E+01  0.10202009221E+01 0.  0.
     999903    2    3    3    0    0  0.10325482623E+00  0.73659392016E-01  0.23669011996E-01  0.13070399561E+00  0.20881742469E-01 0.  0.
         14    1    1    2    0    0  0.14265324179E-01 -0.16878314704E-01 -0.78718505885E-02  0.23459390718E-01  0.00000000000E+00 0.  1.
     999901    1    3    3    0    0 -0.11752015041E+00 -0.56781077311E-01 -0.15797161408E-01  0.88976661367E+00  0.88000000000E+00 0.  1.
        -11    1    4    4    0    0  0.60888423030E-01  0.55435536354E-01  0.17311958295E-01  0.84145491685E-01  0.51100000000E-03 0. -1.
         11    1    4    4    0    0  0.42366403199E-01  0.18223855661E-01  0.63570537015E-02  0.46558503927E-01  0.51100000000E-03 0.  1.
</event>
<event>
 8    1  0.1093753E+005  0.1043930E+01  0.7957747E-01            NaN
         13   -1    0    0    0    0  0.00000000000E+00  0.00000000000E+00  0.74505805969E-08  0.10566000000E+00  0.10566000000E+00 0. -1.
     999900   -1    0    0    0    0 -0.00000000000E+00 -0.00000000000E+00 -0.74505805969E-08  0.93827000000E+00  0.93827000000E+00 0. -1.
     999902    2    1    2    0    0  0.86166825148E-02 -0.92189475440E-02  0.19816793815E-01  0.10204365641E+01  0.10201660845E+01 0.  0.
     999903    2    3    3    0    0 -0.13552700214E-01  0.94657688387E-01 -0.82785174265E-01  0.12813112267E+00  0.20504776633E-01 0.  0.
         14    1    1    2    0    0 -0.86166825148E-02  0.92189475440E-02 -0.19816793815E-01  0.23493435860E-01  0.00000000000E+00 0.  1.
     999901    1    3    3    0    0  0.22169382729E-01 -0.10387663593E+00  0.10260196808E+00  0.89230544147E+00  0.88000000000E+00 0.  1.
        -11    1    4    4    0    0 -0.14119581526E-02  0.71017871865E-01 -0.63661028308E-01  0.95386159354E-01  0.51100000000E-03 0.  1.
         11    1    4    4    0    0 -0.12140742062E-01  0.23639816522E-01 -0.19124145957E-01  0.32744963317E-01  0.51100000000E-03 0. -1.
</event>
<event>
 8    1  0.1093753E+005  0.1043930E+01  0.7957747E-01            NaN
         13   -1    0    0    0    0  0.00000000000E+00  0.00000000000E+00  0.74505805969E-08  0.10566000000E+00  0.10566000000E+00 0.  1.
     999900   -1    0    0    0    0 -0.00000000000E+00 -0.00000000000E+00 -0.74505805969E-08  0.93827000000E+00  0.93827000000E+00 0.  1.
     999902    2    1    2    0    0  0.19140259645E-01  0.39169680196E-02 -0.12746670603E-01  0.10206025529E+01  0.10203359256E+01 0.  0.
     999903    2    3    3    0    0  0.13118555656E+00 -0.70042865722E-02 -0.13989147185E-01  0.13343009720E+00  0.18686474252E-01 0.  0.
         14    1    1    2    0    0 -0.19140259645E-01 -0.39169680196E-02  0.12746670603E-01  0.23327447122E-01  0.00000000000E+00 0.  1.
     999901    1    3    3    0    0 -0.11204529692E+00  0.10921254592E-01  0.12424765824E-02  0.88717245568E+00  0.88000000000E+00 0. -1.
        -11    1    4    4    0    0  0.46853112657E-01 -0.48349038788E-02  0.36427882464E-02  0.47245332980E-01  0.51100000000E-03 0.  1.
         11    1    4    4    0    0  0.84332443904E-01 -0.21693826934E-02 -0.17631935432E-01  0.86184764223E-01  0.51100000000E-03 0. -1.
</event>
<event>
 8    1  0.1093753E+005  0.1043930E+01  0.7957747E-01            NaN
         13   -1    0    0    0    0  0.00000000000E+00  0.00000000000E+00  0.74505805969E-08  0.10566000000E+00  0.10566000000E+00 0.  1.
     999900   -1    0    0    0    0 -0.00000000000E+00 -0.00000000000E+00 -0.74505805969E-08  0.93827000000E+00  0.93827000000E+00 0.  1.
     999902    2    1    2    0    0  0.18947763600E-01  0.10100484712E-01  0.11255427823E-01  0.10196870177E+01  0.10193987894E+01 0.  0.
     999903    2    3    3    0    0  0.12273218931E+00 -0.53959719873E-02 -0.43166606298E-01  0.13178324755E+00  0.20277120830E-01 0.  0.
         14    1    1    2    0    0 -0.18947763600E-01 -0.10100484712E-01 -0.11255427823E-01  0.24242982332E-01  0.00000000000E+00 0. -1.
     999901    1    3    3    0    0 -0.10378442571E+00  0.15496456700E-01  0.54422034121E-01  0.88790377012E+00  0.88000000000E+00 0. -1.
        -11    1    4    4    0    0  0.10788081079E+00 -0.80179327538E-02 -0.31389098603E-01  0.11264143649E+00  0.51100000000E-03 0.  1.
         11    1    4    4    0    0  0.14851378524E-01  0.26219607666E-02 -0.11777507695E-01  0.19141811065E-01  0.51100000000E-03 0. -1.
</event>
<event>
 8    1  0.1093753E+005  0.1043930E+01  0.7957747E-01            NaN
         13   -1    0    0    0    0  0.00000000000E+00  0.00000000000E+00  0.74505805969E-08  0.10566000000E+00  0.10566000000E+00 0. -1.
     999900   -1    0    0    0    0 -0.00000000000E+00 -0.00000000000E+00 -0.74505805969E-08  0.93827000000E+00  0.93827000000E+00 0. -1.
     999902    2    1    2    0    0 -0.10201991177E-01  0.92180207442E-03 -0.23030719450E-01  0.10187239614E+01  0.10184120802E+01 0.  0.
     999903    2    3    3    0    0  0.42552698917E-01 -0.11130833432E+00  0.41683837072E-01  0.12767590734E+00  0.19060891038E-01 0.  0.
         14    1    1    2    0    0  0.10201991177E-01 -0.92180207442E-03  0.23030719450E-01  0.25206038590E-01  0.00000000000E+00 0. -1.
     999901    1    3    3    0    0 -0.52754690094E-01  0.11223013639E+00 -0.64714556522E-01  0.89104805407E+00  0.88000000000E+00 0. -1.
        -11    1    4    4    0    0  0.14067195346E-02 -0.20516925771E-01  0.11280070310E-01  0.23461121247E-01  0.51100000000E-03 0.  1.
         11    1    4    4    0    0  0.41145979382E-01 -0.90791408548E-01  0.30403766762E-01  0.10421478609E+00  0.51100000000E-03 0. -1.
</event>
<event>
 8    1  0.1093753E+005  0.1043930E+01  0.7957747E-01            NaN
         13   -1    0    0    0    0  0.00000000000E+00  0.00000000000E+00  0.74505805969E-08  0.10566000000E+00  0.10566000000E+00 0. -1.
     999900   -1    0    0    0    0 -0.00000000000E+00 -0.00000000000E+00 -0.74505805969E-08  0.93827000000E+00  0.93827000000E+00 0.  1.
     999902    2    1    2    0    0  0.12816117316E-01 -0.21879874643E-03 -0.20189389016E-01  0.10200153149E+01  0.10197349314E+01 0.  0.
     999903    2    3    3    0    0 -0.10412328278E+00 -0.22828264000E-01  0.64589609584E-01  0.12795394377E+00  0.28941430596E-01 0.  0.
         14    1    1    2    0    0 -0.12816117316E-01  0.21879874643E-03  0.20189389016E-01  0.23914685128E-01  0.00000000000E+00 0. -1.
     999901    1    3    3    0    0  0.11693940010E+00  0.22609465254E-01 -0.84778998600E-01  0.89206137110E+00  0.88000000000E+00 0.  1.
        -11    1    4    4    0    0 -0.71333280312E-01 -0.59843976936E-02  0.30748289366E-01  0.77910001384E-01  0.51100000000E-03 0. -1.
         11    1    4    4    0    0 -0.32790002469E-01 -0.16843866307E-01  0.33841320218E-01  0.50043942382E-01  0.51100000000E-03 0.  1.
</event>
<event>
 8    1  0.1093753E+005  0.1043930E+01  0.7957747E-01            NaN
         13   -1    0    0    0    0  0.00000000000E+00  0.00000000000E+00  0.74505805969E-08  0.10566000000E+00  0.10566000000E+00 0.  1.
     999900   -1    0    0    0    0 -0.00000000000E+00 -0.00000000000E+00 -0.74505805969E-08  0.93827000000E+00  0.93827000000E+00 0. -1.
     999902    2    1    2    0    0  0.24761428686E-01  0.49292745029E-03  0.42199990457E-02  0.10188067096E+01  0.10184968983E+01 0.  0.
     999903    2    3    3    0    0  0.67702208163E-01  0.11013631738E+00 -0.53531934029E-02  0.13091187940E+00  0.19891357214E-01 0.  0.
         14    1    1    2    0    0 -0.24761428686E-01 -0.49292745029E-03 -0.42199990457E-02  0.25123290389E-01  0.00000000000E+00 0. -1.
     999901    1    3    3    0    0 -0.42940779478E-01 -0.10964338993E+00  0.95731924486E-02  0.88789483021E+00  0.88000000000E+00 0. -1.
        -11    1    4    4    0    0  0.33405862112E-01  0.66846505085E-01  0.42519119511E-02  0.74851497926E-01  0.51100000000E-03 0.  1.
         11    1    4    4    0    0  0.34296346051E-01  0.43289812300E-01 -0.96051053540E-02  0.56060381476E-01  0.51100000000E-03 0. -1.
</event>
<event>
 8    1  0.1093753E+005  0.1043930E+01  0.7957747E-01            NaN
         13   -1    0    0    0    0  0.00000000000E+00  0.00000000000E+00  0.74505805969E-08  0.10566000000E+00  0.10566000000E+00 0. -1.
     999900   -1    0    0    0    0 -0.00000000000E+00 -0.00000000000E+00 -0.74505805969E-08  0.93827000000E+00  0.93827000000E+00 0.  1.
     999902    2    1    2    0    0  0.20181582513E-01  0.10747845823E-01  0.62739969772E-02  0.10202197596E+01  0.10199442055E+01 0.  0.
     999903    2    3    3    0    0 -0.27220210848E-01 -0.46148345867E-01  0.11649273950E+00  0.13025780655E+00  0.22933122480E-01 0.  0.
         14    1    1    2    0    0 -0.20181582513E-01 -0.10747845823E-01 -0.62739969772E-02  0.23710240417E-01  0.00000000000E+00 0. -1.
     999901    1    3    3    0    0  0.47401793361E-01  0.56896191690E-01 -0.11021874252E+00  0.88996195303E+00  0.88000000000E+00 0.  1.
        -11    1    4    4    0    0 -0.39536109161E-02 -0.15732019375E-01  0.16330301584E-01  0.23023191432E-01  0.51100000000E-03 0. -1.
         11    1    4    4    0    0 -0.23266599931E-01 -0.30416326492E-01  0.10016243791E+00  0.10723461512E+00  0.51100000000E-03 0.  1.
</event>
<event>
 8    1  0.1093753E+005  0.1043930E+01  0.7957747E-01            NaN
         13   -1    0    0    0    0  0.00000000000E+00  0.00000000000E+00  0.74505805969E-08  0.10566000000E+00  0.10566000000E+00 0.  1.
     999900   -1    0    0    0    0 -0.00000000000E+00 -0.00000000000E+00 -0.74505805969E-08  0.93827000000E+00  0.93827000000E+00 0.  1.
     999902    2    1    2    0    0  0.21068372716E-01  0.18010814937E-02  0.10481743704E-01  0.10203294243E+01  0.10200564430E+01 0.  0.
     999903    2    3    3    0    0 -0.10910867051E+00 -0.63638385629E-01  0.14847335702E-01  0.12833870413E+00  0.17199810879E-01 0.  0.
         14    1    1    2    0    0 -0.21068372716E-01 -0.18010814937E-02 -0.10481743704E-01  0.23600575725E-01  0.00000000000E+00 0. -1.
     999901    1    3    3    0    0  0.13017704322E+00  0.65439467122E-01 -0.43655919977E-02  0.89199072015E+00  0.88000000000E+00 0.  1.
        -11    1    4    4    0    0 -0.59449712553E-01 -0.24736771524E-01  0.74962390633E-02  0.64827701711E-01  0.51100000000E-03 0. -1.
         11    1    4    4    0    0 -0.49658957953E-01 -0.38901614105E-01  0.73510966388E-02  0.63511002415E-01  0.51100000000E-03 0.  1.
</event>
<event>
 8    1  0.1093753E+005  0.1043930E+01  0.7957747E-01            NaN
         13   -1    0    0    0    0  0.00000000000E+00  0.00000000000E+00  0.74505805969E-08  0.10566000000E+00  0.10566000000E+00 0. -1.
     999900   -1    0    0    0    0 -0.00000000000E+00 -0.00000000000E+00 -0.74505805969E-08  0.93827000000E+00  0.93827000000E+00 0. -1.
     999902    2    1    2    0    0  0.13792963638E-01 -0.15981582393E-01  0.92135206050E-02  0.10208964205E+01  0.10206365443E+01 0.  0.
     999903    2    3    3    0    0  0.85509613786E-01 -0.97834145176E-01  0.25742609347E-01  0.13403886109E+00  0.20501715404E-01 0.  0.
         14    1    1    2    0    0 -0.13792963638E-01  0.15981582393E-01 -0.92135206050E-02  0.23033579479E-01  0.00000000000E+00 0.  1.
     999901    1    3    3    0    0 -0.71716650149E-01  0.81852562783E-01 -0.16529088742E-01  0.88685755943E+00  0.88000000000E+00 0.  1.
        -11    1    4    4    0    0  0.33864242512E-01 -0.40550070433E-01  0.34192438014E-03  0.52834393782E-01  0.51100000000E-03 0.  1.
         11    1    4    4    0    0  0.51645371274E-01 -0.57284074743E-01  0.25400684967E-01  0.81204467309E-01  0.51100000000E-03 0. -1.
</event>
<event>
 8    1  0.1093753E+005  0.1043930E+01  0.7957747E-01            NaN
         13   -1    0    0    0    0  0.00000000000E+00  0.00000000000E+00  0.74505805969E-08  0.10566000000E+00  0.10566000000E+00 0.  1.
     999900   -1    0    0    0    0 -0.00000000000E+00 -0.00000000000E+00 -0.74505805969E-08  0.93827000000E+00  0.93827000000E+00 0.  1.
     999902    2    1    2    0    0  0.11456934399E-01  0.21154332930E-01 -0.30272125470E-02  0.10196827081E+01  0.10193943761E+01 0.  0.
     999903    2    3    3    0    0  0.66133456791E-01 -0.93352525171E-01 -0.56025403249E-01  0.12900310755E+00  0.20362413573E-01 0.  0.
         14    1    1    2    0    0 -0.11456934399E-01 -0.21154332930E-01  0.30272125470E-02  0.24247291876E-01  0.00000000000E+00 0.  1.
     999901    1    3    3    0    0 -0.54676522393E-01  0.11450685810E+00  0.52998190702E-01  0.89067960057E+00  0.88000000000E+00 0.  1.
        -11    1    4    4    0    0  0.21415932376E-01 -0.29382125234E-01 -0.28638050217E-01  0.46285532124E-01  0.51100000000E-03 0. -1.
         11    1    4    4    0    0  0.44717524415E-01 -0.63970399937E-01 -0.27387353032E-01  0.82717575430E-01  0.51100000000E-03 0.  1.
</event>
<event>
 8    1  0.1093753E+005  0.1043930E+01  0.7957747E-01            NaN
         13   -1    0    0    0    0  0.00000000000E+00  0.00000000000E+00  0.74505805969E-08  0.10566000000E+00  0.10566000000E+00 0. -1.
     999900   -1    0    0    0    0 -0.00000000000E+00 -0.00000000000E+00 -0.74505805969E-08  0.93827000000E+00  0.93827000000E+00 0.  1.
     999902    2    1    2    0    0 -0.11392234929E-01 -0.51368432864E-02 -0.18711666697E-01  0.10214289634E+01  0.10211810959E+01 0.  0.
     999903    2    3    3    0    0 -0.11872691405E+00 -0.55136276230E-01 -0.17639311555E-01  0.13349775744E+00  0.19349854094E-01 0.  0.
         14    1    1    2    0    0  0.11392234929E-01  0.51368432864E-02  0.18711666697E-01  0.22501036558E-01  0.00000000000E+00 0. -1.
     999901    1    3    3    0    0  0.10733467913E+00  0.49999432943E-01 -0.10723551422E-02  0.88793120600E+00  0.88000000000E+00 0.  1.
        -11    1    4    4    0    0 -0.59657730594E-01 -0.18883492314E-01 -0.13813389472E-01  0.64083554453E-01  0.51100000000E-03 0.  1.
         11    1    4    4    0    0 -0.59069183459E-01 -0.36252783916E-01 -0.38259220834E-02  0.69414202992E-01  0.51100000000E-03 0. -1.
</event>
<event>
 8    1  0.1093753E+005  0.1043930E+01  0.7957747E-01            NaN
         13   -1    0    0    0    0  0.00000000000E+00  0.00000000000E+00  0.74505805969E-08  0.10566000000E+00  0.10566000000E+00 0. -1.
     999900   -1    0    0    0    0 -0.00000000000E+00 -0.00000000000E+00 -0.74505805969E-08  0.93827000000E+00  0.93827000000E+00 0. -1.
     999902    2    1    2    0    0 -0.17268705648E-01 -0.34899335447E-02 -0.17807012065E-01  0.10188804988E+01  0.10185725273E+01 0.  0.
     999903    2    3    3    0    0  0.89155242385E-01 -0.44038829380E-01 -0.80536569043E-01  0.12932709008E+00  0.18742506191E-01 0.  0.
         14    1    1    2    0    0  0.17268705648E-01  0.34899335447E-02  0.17807012065E-01  0.25049501185E-01  0.00000000000E+00 0. -1.
     999901    1    3    3    0    0 -0.10642394803E+00  0.40548895835E-01  0.62729556978E-01  0.88955340873E+00  0.88000000000E+00 0. -1.
        -11    1    4    4    0    0  0.17589025733E-01 -0.10167925323E-01 -0.26806247620E-01  0.33639211704E-01  0.51100000000E-03 0. -1.
         11    1    4    4    0    0  0.71566216652E-01 -0.33870904057E-01 -0.53730321423E-01  0.95687878379E-01  0.51100000000E-03 0.  1.
</event>
<event>
 8    1  0.1093753E+005  0.1043930E+01  0.7957747E-01            NaN
         13   -1    0    0    0    0  0.00000000000E+00  0.00000000000E+00  0.74505805969E-08  0.10566000000E+00  0.10566000000E+00 0. -1.
     999900   -1    0    0    0    0 -0.00000000000E+00 -0.00000000000E+00 -0.74505805969E-08  0.93827000000E+00  0.93827000000E+00 0. -1.
     999902    2    1    2    0    0 -0.14500595774E-01  0.15775508881E-01  0.11181296522E-01  0.10197606940E+01  0.10194742360E+01 0.  0.
     999903    2    3    3    0    0 -0.45310055652E-02  0.11352269820E+00 -0.62626700638E-01  0.13122170999E+00  0.19725631071E-01 0.  0.
         14    1    1    2    0    0  0.14500595774E-01 -0.15775508881E-01 -0.11181296522E-01  0.24169305952E-01  0.00000000000E+00 0.  1.
     999901    1    3    3    0    0 -0.99695902092E-02 -0.97747189321E-01  0.73807997159E-01  0.88853898406E+00  0.88000000000E+00 0.  1.
        -11    1    4    4    0    0 -0.21770869131E-02  0.10026117528E+00 -0.61622789261E-01  0.11770587179E+00  0.51100000000E-03 0.  1.
         11    1    4    4    0    0 -0.23539186521E-02  0.13261522923E-01 -0.10039113769E-02  0.13515838202E-01  0.51100000000E-03 0. -1.
</event>
<event>
 8    1  0.1093753E+005  0.1043930E+01  0.7957747E-01            NaN
         13   -1    0    0    0    0  0.00000000000E+00  0.00000000000E+00  0.74505805969E-08  0.10566000000E+00  0.10566000000E+00 0. -1.
     999900   -1    0    0    0    0 -0.00000000000E+00 -0.00000000000E+00 -0.74505805969E-08  0.93827000000E+00  0.93827000000E+00 0.  1.
     999902    2    1    2    0    0  0.14406367076E-01  0.23165900041E-02  0.17614872090E-01  0.10210565717E+01  0.10208003375E+01 0.  0.
     999903    2    3    3    0    0 -0.18982032795E-01  0.80458202304E-01 -0.97518994881E-01  0.12949799030E+00  0.20638198607E-01 0.  0.
         14    1    1    2    0    0 -0.14406367076E-01 -0.23165900041E-02 -0.17614872090E-01  0.22873428259E-01  0.00000000000E+00 0.  1.
     999901    1    3    3    0    0  0.33388399871E-01 -0.78141612300E-01  0.11513386697E+00  0.89155858144E+00  0.88000000000E+00 0. -1.
        -11    1    4    4    0    0 -0.15295178022E-01  0.24464828614E-01 -0.37708931011E-01  0.47483627798E-01  0.51100000000E-03 0. -1.
         11    1    4    4    0    0 -0.36868547733E-02  0.55993373690E-01 -0.59810063870E-01  0.82014362501E-01  0.51100000000E-03 0.  1.
</event>
<event>
 8    1  0.1093753E+005  0.1043930E+01  0.7957747E-01            NaN
         13   -1    0    0    0    0  0.00000000000E+00  0.00000000000E+00  0.74505805969E-08  0.10566000000E+00  0.10566000000E+00 0.  1.
     999900   -1    0    0    0    0 -0.00000000000E+00 -0.00000000000E+00 -0.74505805969E-08  0.93827000000E+00  0.93827000000E+00 0. -1.
     999902    2    1    2    0    0  0.10593941516E-01 -0.90885520241E-02  0.17570439198E-01  0.10214899976E+01  0.10212434878E+01 0.  0.
     999903    2    3    3    0    0 -0.25071111759E-01 -0.17645790288E-01  0.12878179278E+00  0.13373260532E+00  0.18966418094E-01 0.  0.
         14    1    1    2    0    0 -0.10593941516E-01  0.90885520241E-02 -0.17570439198E-01  0.22440002414E-01  0.00000000000E+00 0.  1.
     999901    1    3    3    0    0  0.35665053275E-01  0.85572382643E-02 -0.11121135358E+00  0.88775739226E+00  0.88000000000E+00 0. -1.
        -11    1    4    4    0    0 -0.24243532855E-01 -0.16380271373E-01  0.84527659389E-01  0.89449698145E-01  0.51100000000E-03 0. -1.
         11    1    4    4    0    0 -0.82757890333E-03 -0.12655189158E-02  0.44254133390E-01  0.44282907178E-01  0.51100000000E-03 0.  1.
</event>
<event>
 8    1  0.1093753E+005  0.1043930E+01  0.7957747E-01            NaN
         13   -1    0    0    0    0  0.00000000000E+00  0.00000000000E+00  0.74505805969E-08  0.10566000000E+00  0.10566000000E+00 0. -1.
     999900   -1    0    0    0    0 -0.00000000000E+00 -0.00000000000E+00 -0.74505805969E-08  0.93827000000E+00  0.93827000000E+00 0.  1.
     999902    2    1    2    0    0 -0.11064763408E-01  0.19775415314E-01  0.61459497650E-02  0.10204508872E+01  0.10201807411E+01 0.  0.
     999903    2    3    3    0    0  0.14871955339E-01 -0.72624791021E-01 -0.10320604108E+00  0.12850449338E+00  0.19141122708E-01 0.  0.
         14    1    1    2    0    0  0.11064763408E-01 -0.19775415314E-01 -0.61459497650E-02  0.23479112817E-01  0.00000000000E+00 0. -1.
     999901    1    3    3    0    0 -0.25936718747E-01  0.92400206336E-01  0.10935199084E+00  0.89194639380E+00  0.88000000000E+00 0. -1.
        -11    1    4    4    0    0  0.11097568947E-01 -0.68752677984E-01 -0.87177768433E-01  0.11158096252E+00  0.51100000000E-03 0. -1.
         11    1    4    4    0    0  0.37743863914E-02 -0.38721130378E-02 -0.16028272645E-01  0.16923530867E-01  0.51100000000E-03 0.  1.
</event>
<event>
 8    1  0.1093753E+005  0.1043930E+01  0.7957747E-01            NaN
         13   -1    0    0    0    0  0.00000000000E+00  0.00000000000E+00  0.74505805969E-08  0.10566000000E+00  0.10566000000E+00 0.  1.
     999900   -1    0    0    0    0 -0.00000000000E+00 -0.00000000000E+00 -0.74505805969E-08  0.93827000000E+00  0.93827000000E+00 0. -1.
     999902    2    1    2    0    0  0.16655759977E-01  0.58029738132E-02  0.15808067332E-01  0.10202449026E+01  0.10199699395E+01 0.  0.
     999903    2    3    3    0    0 -0.10689871321E+00  0.50868982368E-01  0.49313967589E-01  0.12984089413E+00  0.20292908534E-01 0.  0.
         14    1    1    2    0    0 -0.16655759977E-01 -0.58029738132E-02 -0.15808067332E-01  0.23685097388E-01  0.00000000000E+00 0. -1.
     999901    1    3    3    0    0  0.12355447318E+00 -0.45066008555E-01 -0.33505900257E-01  0.89040400848E+00  0.88000000000E+00 0.  1.
        -11    1    4    4    0    0 -0.53707009438E-01  0.16691212489E-01  0.29915939942E-01  0.63704505498E-01  0.51100000000E-03 0.  1.
         11    1    4    4    0    0 -0.53191703768E-01  0.34177769879E-01  0.19398027647E-01  0.66136388631E-01  0.51100000000E-03 0. -1.
</event>
<event>
 8    1  0.1093753E+005  0.1043930E+01  0.7957747E-01            NaN
         13   -1    0    0    0    0  0.00000000000E+00  0.00000000000E+00  0.74505805969E-08  0.10566000000E+00  0.10566000000E+00 0. -1.
     999900   -1    0    0    0    0 -0.00000000000E+00 -0.00000000000E+00 -0.74505805969E-08  0.93827000000E+00  0.93827000000E+00 0. -1.
     999902    2    1    2    0    0  0.48571272650E-02 -0.22554807773E-01  0.42408769064E-02  0.10204716097E+01  0.10202019457E+01 0.  0.
     999903    2    3    3    0    0 -0.18966183369E-01 -0.13072048968E+00  0.41405079619E-04  0.13351896133E+00  0.19487144096E-01 0.  0.
         14    1    1    2    0    0 -0.48571272650E-02  0.22554807773E-01 -0.42408769064E-02  0.23458390309E-01  0.00000000000E+00 0. -1.
     999901    1    3    3    0    0  0.23823310634E-01  0.10816568191E+00  0.41994718268E-02  0.88695264836E+00  0.88000000000E+00 0. -1.
        -11    1    4    4    0    0 -0.13207898976E-01 -0.86965876570E-01  0.91982059061E-02  0.88444221947E-01  0.51100000000E-03 0.  1.
         11    1    4    4    0    0 -0.57582843931E-02 -0.43754613115E-01 -0.91568008265E-02  0.45074739382E-01  0.51100000000E-03 0. -1.
</event>
<event>
 8    1  0.1093753E+005  0.1043930E+01  0.7957747E-01            NaN
         13   -1    0    0    0    0  0.00000000000E+00  0.00000000000E+00  0.74505805969E-08  0.10566000000E+00  0.10566000000E+00 0. -1.
     999900   -1    0    0    0    0 -0.00000000000E+00 -0.00000000000E+00 -0.74505805969E-08  0.93827000000E+00  0.93827000000E+00 0. -1.
     999902    2    1    2    0    0 -0.35630988253E-02 -0.67508545174E-02  0.23685064610E-01  0.10190452256E+01  0.10187413410E+01 0.  0.
     999903    2    3    3    0    0 -0.27872995173E-01  0.12002709544E+00  0.34598057688E-01  0.12956070464E+00  0.20138100491E-01 0.  0.
         14    1    1    2    0    0  0.35630988253E-02  0.67508545174E-02 -0.23685064610E-01  0.24884774372E-01  0.00000000000E+00 0.  1.
     999901    1    3    3    0    0  0.24309896348E-01 -0.12677794996E+00 -0.10912993078E-01  0.88948452099E+00  0.88000000000E+00 0. -1.
        -11    1    4    4    0    0 -0.23413009872E-02  0.26520083297E-02 -0.18594417247E-02  0.40290796742E-02  0.51100000000E-03 0. -1.
         11    1    4    4    0    0 -0.25531694186E-01  0.11737508711E+00  0.36457499412E-01  0.12553162497E+00  0.51100000000E-03 0.  1.
</event>
<event>
 8    1  0.1093753E+005  0.1043930E+01  0.7957747E-01            NaN
         13   -1    0    0    0    0  0.00000000000E+00  0.00000000000E+00  0.74505805969E-08  0.10566000000E+00  0.10566000000E+00 0. -1.
     999900   -1    0    0    0    0 -0.00000000000E+00 -0.00000000000E+00 -0.74505805969E-08  0.93827000000E+00  0.93827000000E+00 0. -1.
     999902    2    1    2    0    0  0.23403138057E-01  0.40772493277E-02 -0.43367167111E-02  0.10197817507E+01  0.10194957975E+01 0.  0.
     999903    2    3    3    0    0  0.52147619395E-01  0.87086286701E-01  0.81020090679E-01  0.13129847563E+00  0.19277942542E-01 0.  0.
         14    1    1    2    0    0 -0.23403138057E-01 -0.40772493277E-02  0.43367167111E-02  0.24148249312E-01  0.00000000000E+00 0. -1.
     999901    1    3    3    0    0 -0.28744481337E-01 -0.83009037373E-01 -0.85356807390E-01  0.88848327506E+00  0.88000000000E+00 0. -1.
        -11    1    4    4    0    0  0.48232615674E-01  0.79457237742E-01  0.66017168274E-01  0.11401037441E+00  0.51100000000E-03 0. -1.
         11    1    4    4    0    0  0.39150037206E-02  0.76290489591E-02  0.15002922405E-01  0.17288101222E-01  0.51100000000E-03 0.  1.
</event>
<event>
 7    1  0.1093753E+005  0.1043930E+01  0.7957747E-01            NaN
         13   -1    0    0    0    0  0.00000000000E+00  0.00000000000E+00  0.74505805969E-08  0.10566000000E+00  0.10566000000E+00 0.  1.
     999900   -1    0    0    0    0 -0.00000000000E+00 -0.00000000000E+00 -0.74505805969E-08  0.93827000000E+00  0.93827000000E+00 0.  1.
     999903    2    1    2    0    0 -0.72594963756E-01  0.87350979536E-01 -0.40188750029E-02  0.11541924054E+00  0.20130259375E-01 0.  0.
         14    1    1    2    0    0 -0.86926558385E-02 -0.36468384955E-01  0.21326709659E-01  0.43131588327E-01  0.00000000000E+00 0. -1.
     999901    1    1    2    0    0  0.81287619595E-01 -0.50882594581E-01 -0.17307834656E-01  0.88537917113E+00  0.88000000000E+00 0.  1.
        -11    1    3    3    0    0 -0.21073249404E-01  0.39059349676E-01  0.28041319217E-02  0.44472900899E-01  0.51100000000E-03 0.  1.
         11    1    3    3    0    0 -0.51521714352E-01  0.48291629860E-01 -0.68230069246E-02  0.70946339644E-01  0.51100000000E-03 0. -1.
</event>
<event>
 8    1  0.1093753E+005  0.1043930E+01  0.7957747E-01            NaN
         13   -1    0    0    0    0  0.00000000000E+00  0.00000000000E+00  0.74505805969E-08  0.10566000000E+00  0.10566000000E+00 0.  1.
     999900   -1    0    0    0    0 -0.00000000000E+00 -0.00000000000E+00 -0.74505805969E-08  0.93827000000E+00  0.93827000000E+00 0. -1.
     999902    2    1    2    0    0  0.82722252953E-03  0.29103534342E-02 -0.23162902844E-01  0.10205703227E+01  0.10203029497E+01 0.  0.
     999903    2    3    3    0    0  0.80976715920E-01 -0.14324975099E-01 -0.10292590699E+00  0.13316785785E+00  0.19429426182E-01 0.  0.
         14    1    1    2    0    0 -0.82722252953E-03 -0.29103534342E-02  0.23162902844E-01  0.23359677274E-01  0.00000000000E+00 0.  1.
     999901    1    3    3    0    0 -0.80149493390E-01  0.17235328533E-01  0.79763004145E-01  0.88740246488E+00  0.88000000000E+00 0.  1.
        -11    1    4    4    0    0  0.29387234519E-01 -0.59095620071E-02 -0.52949825329E-01  0.60847987634E-01  0.51100000000E-03 0. -1.
         11    1    4    4    0    0  0.51589481401E-01 -0.84154130916E-02 -0.49976081660E-01  0.72319870214E-01  0.51100000000E-03 0.  1.
</event>
<event>
 8    1  0.1093753E+005  0.1043930E+01  0.7957747E-01            NaN
         13   -1    0    0    0    0  0.00000000000E+00  0.00000000000E+00  0.74505805969E-08  0.10566000000E+00  0.10566000000E+00 0. -1.
     999900   -1    0    0    0    0 -0.00000000000E+00 -0.00000000000E+00 -0.74505805969E-08  0.93827000000E+00  0.93827000000E+00 0. -1.
     999902    2    1    2    0    0  0.18593077130E-01 -0.16185872287E-01 -0.28011404364E-02  0.10191200954E+01  0.10188180591E+01 0.  0.
     999903    2    3    3    0    0  0.85722555744E-02 -0.13024573357E+00  0.18977289988E-03  0.13169741460E+00  0.17513946477E-01 0.  0.
         14    1    1    2    0    0 -0.18593077130E-01  0.16185872287E-01  0.28011404364E-02  0.24809904607E-01  0.00000000000E+00 0. -1.
     999901    1    3    3    0    0  0.10020821556E-01  0.11405986128E+00 -0.29909133363E-02  0.88742268079E+00  0.88000000000E+00 0. -1.
        -11    1    4    4    0    0  0.83076969174E-02 -0.64523194523E-01  0.78404219758E-02  0.65528572374E-01  0.51100000000E-03 0.  1.
         11    1    4    4    0    0  0.26455865701E-03 -0.65722539043E-01 -0.76506490760E-02  0.66168842228E-01  0.51100000000E-03 0. -1.
</event>
<event>
 8    1  0.1093753E+005  0.1043930E+01  0.7957747E-01            NaN
         13   -1    0    0    0    0  0.00000000000E+00  0.00000000000E+00  0.74505805969E-08  0.10566000000E+00  0.10566000000E+00 0. -1.
     999900   -1    0    0    0    0 -0.00000000000E+00 -0.00000000000E+00 -0.74505805969E-08  0.93827000000E+00  0.93827000000E+00 0. -1.
     999902    2    1    2    0    0  0.21464075584E-01 -0.94202404513E-02 -0.31106565289E-02  0.10202842043E+01  0.10200101636E+01 0.  0.
     999903    2    3    3    0    0 -0.11784136761E+00  0.41242985255E-01 -0.18768513491E-01  0.12774964617E+00  0.19497262553E-01 0.  0.
         14    1    1    2    0    0 -0.21464075584E-01  0.94202404513E-02  0.31106565289E-02  0.23645795712E-01  0.00000000000E+00 0. -1.
     999901    1    3    3    0    0  0.13930544319E+00 -0.50663225706E-01  0.15657856962E-01  0.89253455811E+00  0.88000000000E+00 0. -1.
        -11    1    4    4    0    0 -0.89225481516E-01  0.39152836671E-01 -0.11264921876E-01  0.98088178478E-01  0.51100000000E-03 0.  1.
         11    1    4    4    0    0 -0.28615886090E-01  0.20901485838E-02 -0.75035916148E-02  0.29661467697E-01  0.51100000000E-03 0. -1.
</event>
<event>
 8    1  0.1093753E+005  0.1043930E+01  0.7957747E-01            NaN
         13   -1    0    0    0    0  0.00000000000E+00  0.00000000000E+00  0.74505805969E-08  0.10566000000E+00  0.10566000000E+00 0. -1.
     999900   -1    0    0    0    0 -0.00000000000E+00 -0.00000000000E+00 -0.74505805969E-08  0.93827000000E+00  0.93827000000E+00 0. -1.
     999902    2    1    2    0    0  0.17042289111E-01 -0.99157954083E-02 -0.12565058469E-01  0.10205495956E+01  0.10202817423E+01 0.  0.
     999903    2    3    3    0    0  0.67471899895E-01 -0.53394316262E-02  0.10977290080E+00  0.13064473267E+00  0.20904296668E-01 0.  0.
         14    1    1    2    0    0 -0.17042289111E-01  0.99157954083E-02  0.12565058469E-01  0.23380404425E-01  0.00000000000E+00 0. -1.
     999901    1    3    3    0    0 -0.50429610784E-01 -0.45763637821E-02 -0.12233795926E+00  0.88990486291E+00  0.88000000000E+00 0. -1.
        -11    1    4    4    0    0  0.26098812849E-01 -0.34231096345E-02  0.62345181647E-01  0.67676055643E-01  0.51100000000E-03 0. -1.
         11    1    4    4    0    0  0.41373087046E-01 -0.19163219917E-02  0.47427719149E-01  0.62968677025E-01  0.51100000000E-03 0.  1.
</event>
<event>
 8    1  0.1093753E+005  0.1043930E+01  0.7957747E-01            NaN
         13   -1    0    0    0    0  0.00000000000E+00  0.00000000000E+00  0.74505805969E-08  0.10566000000E+00  0.10566000000E+00 0. -1.
     999900   -1    0    0    0    0 -0.00000000000E+00 -0.00000000000E+00 -0.74505805969E-08  0.93827000000E+00  0.93827000000E+00 0.  1.
     999902    2    1    2    0    0 -0.25436377003E-01  0.89857456201E-02 -0.86326828419E-02  0.10156055210E+01  0.10152104699E+01 0.  0.
     999903    2    3    3    0    0 -0.70960398843E-01  0.97960800436E-01  0.39433969355E-01  0.12864475521E+00  0.19045694460E-01 0.  0.
         14    1    1    2    0    0  0.25436377003E-01 -0.89857456201E-02  0.86326828419E-02  0.28324479032E-01  0.00000000000E+00 0. -1.
     999901    1    3    3    0    0  0.45524021840E-01 -0.88975054815E-01 -0.48066652197E-01  0.88696076576E+00  0.88000000000E+00 0.  1.
        -11    1    4    4    0    0 -0.24133028596E-01  0.20308303364E-01  0.13633726840E-01  0.34365242372E-01  0.51100000000E-03 0.  1.
         11    1    4    4    0    0 -0.46827370247E-01  0.77652497072E-01  0.25800242515E-01  0.94279512836E-01  0.51100000000E-03 0. -1.
</event>
<event>
 8    1  0.1093753E+005  0.1043930E+01  0.7957747E-01            NaN
         13   -1    0    0    0    0  0.00000000000E+00  0.00000000000E+00  0.74505805969E-08  0.10566000000E+00  0.10566000000E+00 0. -1.
     999900   -1    0    0    0    0 -0.00000000000E+00 -0.00000000000E+00 -0.74505805969E-08  0.93827000000E+00  0.93827000000E+00 0. -1.
     999902    2    1    2    0    0  0.36250367197E-02  0.16802467875E-01 -0.31088361391E-01  0.10084060640E+01  0.10077801545E+01 0.  0.
     999903    2    3    3    0    0  0.10735488728E+00  0.52134499598E-01 -0.72028161303E-02  0.12128783416E+00  0.20390691137E-01 0.  0.
         14    1    1    2    0    0 -0.36250367197E-02 -0.16802467875E-01  0.31088361391E-01  0.35523936042E-01  0.00000000000E+00 0. -1.
     999901    1    3    3    0    0 -0.10372985056E+00 -0.35332031722E-01 -0.23885545261E-01  0.88711822980E+00  0.88000000000E+00 0. -1.
        -11    1    4    4    0    0  0.74997627831E-01  0.27483673679E-01  0.53241717405E-03  0.79878289217E-01  0.51100000000E-03 0.  1.
         11    1    4    4    0    0  0.32357259446E-01  0.24650825918E-01 -0.77352333044E-02  0.41409544946E-01  0.51100000000E-03 0. -1.
</event>
<event>
 8    1  0.1093753E+005  0.1043930E+01  0.7957747E-01            NaN
         13   -1    0    0    0    0  0.00000000000E+00  0.00000000000E+00  0.74505805969E-08  0.10566000000E+00  0.10566000000E+00 0.  1.
     999900   -1    0    0    0    0 -0.00000000000E+00 -0.00000000000E+00 -0.74505805969E-08  0.93827000000E+00  0.93827000000E+00 0.  1.
     999902    2    1    2    0    0 -0.17186825094E-01  0.15443932743E-01 -0.12344815891E-01  0.10177327388E+01  0.10173955136E+01 0.  0.
     999903    2    3    3    0    0 -0.17826189785E-01  0.76071418970E-01 -0.10318058311E+00  0.13098179434E+00  0.20133650760E-01 0.  0.
         14    1    1    2    0    0  0.17186825094E-01 -0.15443932743E-01  0.12344815891E-01  0.26197261207E-01  0.00000000000E+00 0.  1.
     999901    1    3    3    0    0  0.63936469161E-03 -0.60627486227E-01  0.90835767217E-01  0.88675094445E+00  0.88000000000E+00 0. -1.
        -11    1    4    4    0    0 -0.15115464617E-01  0.23155195872E-01 -0.37349946459E-01  0.46474939353E-01  0.51100000000E-03 0.  1.
         11    1    4    4    0    0 -0.27107251689E-02  0.52916223097E-01 -0.65830636650E-01  0.84506854992E-01  0.51100000000E-03 0. -1.
</event>
<event>
 8    1  0.1093753E+005  0.1043930E+01  0.7957747E-01            NaN
         13   -1    0    0    0    0  0.00000000000E+00  0.00000000000E+00  0.74505805969E-08  0.10566000000E+00  0.10566000000E+00 0. -1.
     999900   -1    0    0    0    0 -0.00000000000E+00 -0.00000000000E+00 -0.74505805969E-08  0.93827000000E+00  0.93827000000E+00 0.  1.
     999902    2    1    2    0    0  0.23831724070E-01 -0.28290250731E-02 -0.12845553728E-02  0.10198965954E+01  0.10196133879E+01 0.  0.
     999903    2    3    3    0    0 -0.11455593848E+00 -0.51364997940E-01  0.10238265027E-01  0.12768604781E+00  0.20915991034E-01 0.  0.
         14    1    1    2    0    0 -0.23831724070E-01  0.28290250731E-02  0.12845553728E-02  0.24033404617E-01  0.00000000000E+00 0.  1.
     999901    1    3    3    0    0  0.13838766255E+00  0.48535972867E-01 -0.11522820400E-01  0.89221054757E+00  0.88000000000E+00 0. -1.
        -11    1    4    4    0    0 -0.36536607035E-01 -0.68464971811E-02 -0.78003708708E-03  0.37184240696E-01  0.51100000000E-03 0. -1.
         11    1    4    4    0    0 -0.78019331443E-01 -0.44518500759E-01  0.11018302114E-01  0.90501807115E-01  0.51100000000E-03 0.  1.
</event>
<event>
 8    1  0.1093753E+005  0.1043930E+01  0.7957747E-01            NaN
         13   -1    0    0    0    0  0.00000000000E+00  0.00000000000E+00  0.74505805969E-08  0.10566000000E+00  0.10566000000E+00 0. -1.
     999900   -1    0    0    0    0 -0.00000000000E+00 -0.00000000000E+00 -0.74505805969E-08  0.93827000000E+00  0.93827000000E+00 0. -1.
     999902    2    1    2    0    0  0.18389438244E-01 -0.98351344574E-03 -0.13016427419E-01  0.10213785894E+01  0.10211295984E+01 0.  0.
     999903    2    3    3    0    0 -0.16935538583E-02 -0.82875337996E-01  0.99075405482E-01  0.13027019166E+00  0.16828460766E-01 0.  0.
         14    1    1    2    0    0 -0.18389438244E-01  0.98351344574E-03  0.13016427419E-01  0.22551410608E-01  0.00000000000E+00 0. -1.
     999901    1    3    3    0    0  0.20082992103E-01  0.81891824551E-01 -0.11209183290E+00  0.89110839773E+00  0.88000000000E+00 0. -1.
        -11    1    4    4    0    0  0.57578808656E-02 -0.20401281956E-01  0.31143062039E-01  0.37676477166E-01  0.51100000000E-03 0.  1.
         11    1    4    4    0    0 -0.74514347239E-02 -0.62474056040E-01  0.67932343444E-01  0.92593714497E-01  0.51100000000E-03 0. -1.
</event>
<event>
 8    1  0.1093753E+005  0.1043930E+01  0.7957747E-01            NaN
         13   -1    0    0    0    0  0.00000000000E+00  0.00000000000E+00  0.74505805969E-08  0.10566000000E+00  0.10566000000E+00 0.  1.
     999900   -1    0    0    0    0 -0.00000000000E+00 -0.00000000000E+00 -0.74505805969E-08  0.93827000000E+00  0.93827000000E+00 0. -1.
     999902    2    1    2    0    0 -0.99400044479E-02 -0.18297539466E-01 -0.10831803209E-01  0.10204580678E+01  0.10201880888E+01 0.  0.
     999903    2    3    3    0    0 -0.12017754916E+00 -0.10681218841E-01  0.48866690776E-01  0.13154061678E+00  0.18927457222E-01 0.  0.
         14    1    1    2    0    0  0.99400044479E-02  0.18297539466E-01  0.10831803209E-01  0.23471932168E-01  0.00000000000E+00 0.  1.
     999901    1    3    3    0    0  0.11023754471E+00 -0.76163206251E-02 -0.59698493985E-01  0.88891745105E+00  0.88000000000E+00 0. -1.
        -11    1    4    4    0    0 -0.31711593324E-01 -0.47717181272E-02  0.44728302977E-02  0.32383047678E-01  0.51100000000E-03 0.  1.
         11    1    4    4    0    0 -0.88465955836E-01 -0.59095007139E-02  0.44393860479E-01  0.99157569100E-01  0.51100000000E-03 0. -1.
</event>
<event>
 8    1  0.1093753E+005  0.1043930E+01  0.7957747E-01            NaN
         13   -1    0    0    0    0  0.00000000000E+00  0.00000000000E+00  0.74505805969E-08  0.10566000000E+00  0.10566000000E+00 0.  1.
     999900   -1    0    0    0    0 -0.00000000000E+00 -0.00000000000E+00 -0.74505805969E-08  0.93827000000E+00  0.93827000000E+00 0.  1.
     999902    2    1    2    0    0  0.84606200770E-02  0.20706850996E-02  0.21889978316E-01  0.10203706923E+01  0.10200986760E+01 0.  0.
     999903    2    3    3    0    0 -0.89443881033E-01 -0.82118228470E-01  0.43748723566E-01  0.13067924620E+00  0.20481779048E-01 0.  0.
         14    1    1    2    0    0 -0.84606200770E-02 -0.20706850996E-02 -0.21889978316E-01  0.23559307705E-01  0.00000000000E+00 0. -1.
     999901    1    3    3    0    0  0.97904501110E-01  0.84188913570E-01 -0.21858745249E-01  0.88969144609E+00  0.88000000000E+00 0. -1.
        -11    1    4    4    0    0 -0.35047548077E-01 -0.46026992273E-01  0.20162943828E-01  0.61266794177E-01  0.51100000000E-03 0. -1.
         11    1    4    4    0    0 -0.54396332957E-01 -0.36091236198E-01  0.23585779737E-01  0.69412452026E-01  0.51100000000E-03 0.  1.
</event>
<event>
 8    1  0.1093753E+005  0.1043930E+01  0.7957747E-01            NaN
         13   -1    0    0    0    0  0.00000000000E+00  0.00000000000E+00  0.74505805969E-08  0.10566000000E+00  0.10566000000E+00 0. -1.
     999900   -1    0    0    0    0 -0.00000000000E+00 -0.00000000000E+00 -0.74505805969E-08  0.93827000000E+00  0.93827000000E+00 0. -1.
     999902    2    1    2    0    0  0.22476937284E-01  0.17161099905E-02 -0.12521162913E-01  0.10181436225E+01  0.10178170262E+01 0.  0.
     999903    2    3    3    0    0 -0.66778321449E-02 -0.65139742577E-01 -0.11098729518E+00  0.12965316966E+00  0.14282338963E-01 0.  0.
         14    1    1    2    0    0 -0.22476937284E-01 -0.17161099905E-02  0.12521162913E-01  0.25786377486E-01  0.00000000000E+00 0. -1.
     999901    1    3    3    0    0  0.29154769429E-01  0.66855852567E-01  0.98466132271E-01  0.88849045285E+00  0.88000000000E+00 0. -1.
        -11    1    4    4    0    0 -0.11365632594E-02 -0.39733355588E-01 -0.54419435032E-01  0.67392635744E-01  0.51100000000E-03 0.  1.
         11    1    4    4    0    0 -0.55412688855E-02 -0.25406386989E-01 -0.56567860152E-01  0.62260533919E-01  0.51100000000E-03 0. -1.
</event>
<event>
 8    1  0.1093753E+005  0.1043930E+01  0.7957747E-01            NaN
         13   -1    0    0    0    0  0.00000000000E+00  0.00000000000E+00  0.74505805969E-08  0.10566000000E+00  0.10566000000E+00 0. -1.
     999900   -1    0    0    0    0 -0.00000000000E+00 -0.00000000000E+00 -0.74505805969E-08  0.93827000000E+00  0.93827000000E+00 0.  1.
     999902    2    1    2    0    0 -0.19434588709E-01  0.11366196678E-01  0.79670410026E-02  0.10200476340E+01  0.10197680168E+01 0.  0.
     999903    2    3    3    0    0  0.26703159254E-01 -0.34948345569E-01 -0.11904061206E+00  0.12852944988E+00  0.20364346162E-01 0.  0.
         14    1    1    2    0    0  0.19434588709E-01 -0.11366196678E-01 -0.79670410026E-02  0.23882366038E-01  0.00000000000E+00 0. -1.
     999901    1    3    3    0    0 -0.46137747963E-01  0.46314542247E-01  0.12700765306E+00  0.89151818408E+00  0.88000000000E+00 0. -1.
        -11    1    4    4    0    0  0.32357180270E-02 -0.18126260746E-01 -0.33283979631E-01  0.38040972923E-01  0.51100000000E-03 0.  1.
         11    1    4    4    0    0  0.23467441227E-01 -0.16822084822E-01 -0.85756632430E-01  0.90488476958E-01  0.51100000000E-03 0. -1.
</event>
<event>
 8    1  0.1093753E+005  0.1043930E+01  0.7957747E-01            NaN
         13   -1    0    0    0    0  0.00000000000E+00  0.00000000000E+00  0.74505805969E-08  0.10566000000E+00  0.10566000000E+00 0. -1.
     999900   -1    0    0    0    0 -0.00000000000E+00 -0.00000000000E+00 -0.74505805969E-08  0.93827000000E+00  0.93827000000E+00 0.  1.
     999902    2    1    2    0    0  0.23307587883E-01 -0.22054367964E-02 -0.59244575187E-02  0.10197803250E+01  0.10194943377E+01 0.  0.
     999903    2    3    3    0    0 -0.11445777477E+00 -0.51990583370E-01  0.53653111362E-02  0.12760023399E+00  0.21199768516E-01 0.  0.
         14    1    1    2    0    0 -0.23307587883E-01  0.22054367964E-02  0.59244575187E-02  0.24149674973E-01  0.00000000000E+00 0. -1.
     999901    1    3    3    0    0  0.13776536266E+00  0.49785146574E-01 -0.11289768655E-01  0.89218009104E+00  0.88000000000E+00 0.  1.
        -11    1    4    4    0    0 -0.60043609187E-01 -0.18116884170E-01  0.91845075582E-02  0.63388270179E-01  0.51100000000E-03 0.  1.
         11    1    4    4    0    0 -0.54414165587E-01 -0.33873699200E-01 -0.38191964221E-02  0.64211963810E-01  0.51100000000E-03 0. -1.
</event>
<event>
 8    1  0.1093753E+005  0.1043930E+01  0.7957747E-01            NaN
         13   -1    0    0    0    0  0.00000000000E+00  0.00000000000E+00  0.74505805969E-08  0.10566000000E+00  0.10566000000E+00 0. -1.
     999900   -1    0    0    0    0 -0.00000000000E+00 -0.00000000000E+00 -0.74505805969E-08  0.93827000000E+00  0.93827000000E+00 0. -1.
     999902    2    1    2    0    0 -0.17491393292E-01 -0.13381410937E-01 -0.68666993599E-02  0.10208613512E+01  0.10206006740E+01 0.  0.
     999903    2    3    3    0    0 -0.11288530841E+00 -0.11301234923E-02 -0.67574207055E-01  0.13354207687E+00  0.22865756072E-01 0.  0.
         14    1    1    2    0    0  0.17491393292E-01  0.13381410937E-01  0.68666993599E-02  0.23068648813E-01  0.00000000000E+00 0.  1.
     999901    1    3    3    0    0  0.95393915121E-01 -0.12251287445E-01  0.60707507695E-01  0.88731927432E+00  0.88000000000E+00 0.  1.
        -11    1    4    4    0    0 -0.63083370642E-01  0.32816874262E-02 -0.49930454724E-01  0.80520758528E-01  0.51100000000E-03 0.  1.
         11    1    4    4    0    0 -0.49801937771E-01 -0.44118109185E-02 -0.17643752331E-01  0.53021318341E-01  0.51100000000E-03 0. -1.
</event>
<event>
 8    1  0.1093753E+005  0.1043930E+01  0.7957747E-01            NaN
         13   -1    0    0    0    0  0.00000000000E+00  0.00000000000E+00  0.74505805969E-08  0.10566000000E+00  0.10566000000E+00 0. -1.
     999900   -1    0    0    0    0 -0.00000000000E+00 -0.00000000000E+00 -0.74505805969E-08  0.93827000000E+00  0.93827000000E+00 0.  1.
     999902    2    1    2    0    0  0.22558813627E-01 -0.35992396505E-03  0.46537558636E-02  0.10208933540E+01  0.10206334078E+01 0.  0.
     999903    2    3    3    0    0  0.13024420291E+00 -0.22333944974E-01  0.10888310419E-01  0.13403492650E+00  0.19607364126E-01 0.  0.
         14    1    1    2    0    0 -0.22558813627E-01  0.35992396505E-03 -0.46537558636E-02  0.23036646048E-01  0.00000000000E+00 0. -1.
     999901    1    3    3    0    0 -0.10768538929E+00  0.21974021009E-01 -0.62345545553E-02  0.88685842745E+00  0.88000000000E+00 0.  1.
        -11    1    4    4    0    0  0.12106148996E-01 -0.52190240383E-02  0.61821804412E-02  0.14569747130E-01  0.51100000000E-03 0.  1.
         11    1    4    4    0    0  0.11813805392E+00 -0.17114920936E-01  0.47061299777E-02  0.11946517937E+00  0.51100000000E-03 0. -1.
</event>
<event>
 8    1  0.1093753E+005  0.1043930E+01  0.7957747E-01            NaN
         13   -1    0    0    0    0  0.00000000000E+00  0.00000000000E+00  0.74505805969E-08  0.10566000000E+00  0.10566000000E+00 0.  1.
     999900   -1    0    0    0    0 -0.00000000000E+00 -0.00000000000E+00 -0.74505805969E-08  0.93827000000E+00  0.93827000000E+00 0.  1.
     999902    2    1    2    0    0  0.17761718088E-01  0.14027372605E-01 -0.53884467016E-03  0.10212907384E+01  0.10210397819E+01 0.  0.
     999903    2    3    3    0    0 -0.69630342557E-02  0.12016956252E+00 -0.52865312590E-01  0.13302527297E+00  0.20292224381E-01 0.  0.
         14    1    1    2    0    0 -0.17761718088E-01 -0.14027372605E-01  0.53884467016E-03  0.22639261588E-01  0.00000000000E+00 0.  1.
     999901    1    3    3    0    0  0.24724752344E-01 -0.10614218991E+00  0.52326467920E-01  0.88826546545E+00  0.88000000000E+00 0. -1.
        -11    1    4    4    0    0  0.16108169177E-02  0.76921978676E-01 -0.41816502318E-01  0.87569780870E-01  0.51100000000E-03 0. -1.
         11    1    4    4    0    0 -0.85738511734E-02  0.43247583844E-01 -0.11048810271E-01  0.45455492096E-01  0.51100000000E-03 0.  1.
</event>
<event>
 8    1  0.1093753E+005  0.1043930E+01  0.7957747E-01            NaN
         13   -1    0    0    0    0  0.00000000000E+00  0.00000000000E+00  0.74505805969E-08  0.10566000000E+00  0.10566000000E+00 0. -1.
     999900   -1    0    0    0    0 -0.00000000000E+00 -0.00000000000E+00 -0.74505805969E-08  0.93827000000E+00  0.93827000000E+00 0. -1.
     999902    2    1    2    0    0  0.23423832281E-02 -0.58866488532E-02  0.22615233081E-01  0.10204440859E+01  0.10201737814E+01 0.  0.
     999903    2    3    3    0    0  0.59875348306E-01 -0.74312865097E-01  0.90722961400E-01  0.13329649288E+00  0.20732583903E-01 0.  0.
         14    1    1    2    0    0 -0.23423832281E-02  0.58866488532E-02 -0.22615233081E-01  0.23485914102E-01  0.00000000000E+00 0.  1.
     999901    1    3    3    0    0 -0.57532965078E-01  0.68426216244E-01 -0.68107728319E-01  0.88714759302E+00  0.88000000000E+00 0.  1.
        -11    1    4    4    0    0  0.24364129534E-01 -0.15586046023E-01  0.24168335630E-01  0.37694896295E-01  0.51100000000E-03 0.  1.
         11    1    4    4    0    0  0.35511218772E-01 -0.58726819075E-01  0.66554625769E-01  0.95601596585E-01  0.51100000000E-03 0. -1.
</event>
<event>
 8    1  0.1093753E+005  0.1043930E+01  0.7957747E-01            NaN
         13   -1    0    0    0    0  0.00000000000E+00  0.00000000000E+00  0.74505805969E-08  0.10566000000E+00  0.10566000000E+00 0. -1.
     999900   -1    0    0    0    0 -0.00000000000E+00 -0.00000000000E+00 -0.74505805969E-08  0.93827000000E+00  0.93827000000E+00 0.  1.
     999902    2    1    2    0    0 -0.21270592067E-01 -0.75523871538E-02 -0.59139379501E-02  0.10205965197E+01  0.10203297530E+01 0.  0.
     999903    2    3    3    0    0 -0.26762272138E-01 -0.85698452722E-01  0.93832792862E-01  0.13150351200E+00  0.20691463063E-01 0.  0.
         14    1    1    2    0    0  0.21270592067E-01  0.75523871538E-02  0.59139379501E-02  0.23333480253E-01  0.00000000000E+00 0. -1.
     999901    1    3    3    0    0  0.54916800705E-02  0.78146065568E-01 -0.99746730812E-01  0.88909300775E+00  0.88000000000E+00 0. -1.
        -11    1    4    4    0    0  0.27951355659E-02 -0.15491085102E-01  0.12891432081E-01  0.20352804292E-01  0.51100000000E-03 0.  1.
         11    1    4    4    0    0 -0.29557407704E-01 -0.70207367620E-01  0.80941360781E-01  0.11115070771E+00  0.51100000000E-03 0. -1.
</event>
<event>
 8    1  0.1093753E+005  0.1043930E+01  0.7957747E-01            NaN
         13   -1    0    0    0    0  0.00000000000E+00  0.00000000000E+00  0.74505805969E-08  0.10566000000E+00  0.10566000000E+00 0. -1.
     999900   -1    0    0    0    0 -0.00000000000E+00 -0.00000000000E+00 -0.74505805969E-08  0.93827000000E+00  0.93827000000E+00 0.  1.
     999902    2    1    2    0    0 -0.59976179818E-02 -0.37008224017E-03 -0.21337595245E-01  0.10217624256E+01  0.10215219298E+01 0.  0.
     999903    2    3    3    0    0 -0.37079853250E-01 -0.17113874017E-01  0.12061056910E+00  0.12968858269E+00  0.24584932386E-01 0.  0.
         14    1    1    2    0    0  0.59976179818E-02  0.37008224017E-03  0.21337595245E-01  0.22167574363E-01  0.00000000000E+00 0. -1.
     999901    1    3    3    0    0  0.31082235268E-01  0.16743791777E-01 -0.14194816434E+00  0.89207384295E+00  0.88000000000E+00 0.  1.
        -11    1    4    4    0    0  0.71132587327E-03 -0.45976182656E-03  0.31026325327E-01  0.31042089970E-01  0.51100000000E-03 0. -1.
         11    1    4    4    0    0 -0.37791179123E-01 -0.16654112191E-01  0.89584243772E-01  0.98646492718E-01  0.51100000000E-03 0.  1.
</event>
<event>
 8    1  0.1093753E+005  0.1043930E+01  0.7957747E-01            NaN
         13   -1    0    0    0    0  0.00000000000E+00  0.00000000000E+00  0.74505805969E-08  0.10566000000E+00  0.10566000000E+00 0. -1.
     999900   -1    0    0    0    0 -0.00000000000E+00 -0.00000000000E+00 -0.74505805969E-08  0.93827000000E+00  0.93827000000E+00 0.  1.
     999902    2    1    2    0    0 -0.11067454716E-01 -0.20622703326E-01  0.34003239681E-02  0.10202794894E+01  0.10200053382E+01 0.  0.
     999903    2    3    3    0    0  0.10774594668E+00  0.66333190446E-01 -0.17769761149E-02  0.12803246297E+00  0.19490324559E-01 0.  0.
         14    1    1    2    0    0  0.11067454716E-01  0.20622703326E-01 -0.34003239681E-02  0.23650510554E-01  0.00000000000E+00 0.  1.
     999901    1    3    3    0    0 -0.11881340139E+00 -0.86955893772E-01  0.51773000830E-02  0.89224702647E+00  0.88000000000E+00 0. -1.
        -11    1    4    4    0    0  0.22537417686E-01  0.22430967975E-01  0.37292550041E-02  0.32019556276E-01  0.51100000000E-03 0. -1.
         11    1    4    4    0    0  0.85208528990E-01  0.43902222471E-01 -0.55062311191E-02  0.96012906698E-01  0.51100000000E-03 0.  1.
</event>
<event>
 8    1  0.1093753E+005  0.1043930E+01  0.7957747E-01            NaN
         13   -1    0    0    0    0  0.00000000000E+00  0.00000000000E+00  0.74505805969E-08  0.10566000000E+00  0.10566000000E+00 0. -1.
     999900   -1    0    0    0    0 -0.00000000000E+00 -0.00000000000E+00 -0.74505805969E-08  0.93827000000E+00  0.93827000000E+00 0. -1.
     999902    2    1    2    0    0  0.18600540195E-01 -0.27109440386E-01  0.26330158034E-02  0.10109476619E+01  0.10104094915E+01 0.  0.
     999903    2    3    3    0    0 -0.11394040599E+00  0.97537092962E-02  0.29711384403E-01  0.11984764942E+00  0.20078390020E-01 0.  0.
         14    1    1    2    0    0 -0.18600540195E-01  0.27109440386E-01 -0.26330158034E-02  0.32982338089E-01  0.00000000000E+00 0.  1.
     999901    1    3    3    0    0  0.13254094618E+00 -0.36863149683E-01 -0.27078368599E-01  0.89110001249E+00  0.88000000000E+00 0.  1.
        -11    1    4    4    0    0 -0.76019353869E-01 -0.30240843562E-02  0.18892778802E-01  0.78391871140E-01  0.51100000000E-03 0.  1.
         11    1    4    4    0    0 -0.37921052119E-01  0.12777793652E-01  0.10818605601E-01  0.41455778278E-01  0.51100000000E-03 0. -1.
</event>
<event>
 8    1  0.1093753E+005  0.1043930E+01  0.7957747E-01            NaN
         13   -1    0    0    0    0  0.00000000000E+00  0.00000000000E+00  0.74505805969E-08  0.10566000000E+00  0.10566000000E+00 0.  1.
     999900   -1    0    0    0    0 -0.00000000000E+00 -0.00000000000E+00 -0.74505805969E-08  0.93827000000E+00  0.93827000000E+00 0.  1.
     999902    2    1    2    0    0 -0.15452887977E-03  0.14339587819E-01  0.15851307282E-01  0.10225545094E+01  0.10223310682E+01 0.  0.
     999903    2    3    3    0    0  0.18107163521E-01 -0.87201076800E-01 -0.92523446260E-01  0.12992408012E+00  0.19692163966E-01 0.  0.
         14    1    1    2    0    0  0.15452887977E-03 -0.14339587819E-01 -0.15851307282E-01  0.21375490650E-01  0.00000000000E+00 0. -1.
     999901    1    3    3    0    0 -0.18261692400E-01  0.10154066462E+00  0.10837475354E+00  0.89263042923E+00  0.88000000000E+00 0. -1.
        -11    1    4    4    0    0  0.10790430137E-01 -0.56610740086E-01 -0.45881060962E-01  0.73665067377E-01  0.51100000000E-03 0. -1.
         11    1    4    4    0    0  0.73167333838E-02 -0.30590336714E-01 -0.46642385298E-01  0.56259012744E-01  0.51100000000E-03 0.  1.
</event>
<event>
 8    1  0.1093753E+005  0.1043930E+01  0.7957747E-01            NaN
         13   -1    0    0    0    0  0.00000000000E+00  0.00000000000E+00  0.74505805969E-08  0.10566000000E+00  0.10566000000E+00 0.  1.
     999900   -1    0    0    0    0 -0.00000000000E+00 -0.00000000000E+00 -0.74505805969E-08  0.93827000000E+00  0.93827000000E+00 0. -1.
     999902    2    1    2    0    0  0.51911264258E-02 -0.12411506844E-01  0.18879035609E-01  0.10207478672E+01  0.10204845894E+01 0.  0.
     999903    2    3    3    0    0 -0.32774922423E-02 -0.12491533060E+00 -0.36931089462E-01  0.13179140149E+00  0.19760727853E-01 0.  0.
         14    1    1    2    0    0 -0.51911264258E-02  0.12411506844E-01 -0.18879035609E-01  0.23182132802E-01  0.00000000000E+00 0.  1.
     999901    1    3    3    0    0  0.84686186681E-02  0.11250382375E+00  0.55810125071E-01  0.88895646571E+00  0.88000000000E+00 0.  1.
        -11    1    4    4    0    0 -0.83449313134E-02 -0.38243698865E-01 -0.17186524070E-01  0.42753433922E-01  0.51100000000E-03 0.  1.
         11    1    4    4    0    0  0.50674390711E-02 -0.86671631730E-01 -0.19744565392E-01  0.89037967570E-01  0.51100000000E-03 0. -1.
</event>
<event>
 8    1  0.1093753E+005  0.1043930E+01  0.7957747E-01            NaN
         13   -1    0    0    0    0  0.00000000000E+00  0.00000000000E+00  0.74505805969E-08  0.10566000000E+00  0.10566000000E+00 0.  1.
     999900   -1    0    0    0    0 -0.00000000000E+00 -0.00000000000E+00 -0.74505805969E-08  0.93827000000E+00  0.93827000000E+00 0. -1.
     999902    2    1    2    0    0 -0.95825559403E-02  0.16497218133E-01  0.14104992683E-01  0.10202037613E+01  0.10199278309E+01 0.  0.
     999903    2    3    3    0    0 -0.12198525052E+00  0.46540146073E-01  0.10973459015E-01  0.13254011454E+00  0.20001965398E-01 0.  0.
         14    1    1    2    0    0  0.95825559403E-02 -0.16497218133E-01 -0.14104992683E-01  0.23726238705E-01  0.00000000000E+00 0. -1.
     999901    1    3    3    0    0  0.11240269458E+00 -0.30042927940E-01  0.31315336682E-02  0.88766364675E+00  0.88000000000E+00 0.  1.
        -11    1    4    4    0    0 -0.10256537039E+00  0.32734689621E-01  0.13784234046E-01  0.10854253238E+00  0.51100000000E-03 0. -1.
         11    1    4    4    0    0 -0.19419880128E-01  0.13805456452E-01 -0.28107750308E-02  0.23997582156E-01  0.51100000000E-03 0.  1.
</event>
<event>
 8    1  0.1093753E+005  0.1043930E+01  0.7957747E-01            NaN
         13   -1    0    0    0    0  0.00000000000E+00  0.00000000000E+00  0.74505805969E-08  0.10566000000E+00  0.10566000000E+00 0.  1.
     999900   -1    0    0    0    0 -0.00000000000E+00 -0.00000000000E+00 -0.74505805969E-08  0.93827000000E+00  0.93827000000E+00 0. -1.
     999902    2    1    2    0    0 -0.35864064474E-02 -0.28370244185E-01 -0.28819865598E-02  0.10151891073E+01  0.10147821858E+01 0.  0.
     999903    2    3    3    0    0  0.40906652014E-01  0.61734582899E-01 -0.97893110424E-01  0.12438855400E+00  0.20123081089E-01 0.  0.
         14    1    1    2    0    0  0.35864064474E-02  0.28370244185E-01  0.28819865598E-02  0.28740892694E-01  0.00000000000E+00 0.  1.
     999901    1    3    3    0    0 -0.44493058461E-01 -0.90104827084E-01  0.95011123865E-01  0.89080055331E+00  0.88000000000E+00 0.  1.
        -11    1    4    4    0    0  0.20267891948E-01  0.19057499575E-01 -0.48569651953E-01  0.55975422696E-01  0.51100000000E-03 0. -1.
         11    1    4    4    0    0  0.20638760065E-01  0.42677083324E-01 -0.49323458471E-01  0.68413131303E-01  0.51100000000E-03 0.  1.
</event>
<event>
 8    1  0.1093753E+005  0.1043930E+01  0.7957747E-01            NaN
         13   -1    0    0    0    0  0.00000000000E+00  0.00000000000E+00  0.74505805969E-08  0.10566000000E+00  0.10566000000E+00 0. -1.
     999900   -1    0    0    0    0 -0.00000000000E+00 -0.00000000000E+00 -0.74505805969E-08  0.93827000000E+00  0.93827000000E+00 0. -1.
     999902    2    1    2    0    0  0.19264962495E-01 -0.49410193569E-02  0.12158788816E-01  0.10206193029E+01  0.10203530629E+01 0.  0.
     999903    2    3    3    0    0  0.12565891956E+00 -0.11411000648E-01  0.39421096016E-01  0.13376826237E+00  0.20482924701E-01 0.  0.
         14    1    1    2    0    0 -0.19264962495E-01  0.49410193569E-02 -0.12158788816E-01  0.23310697066E-01  0.00000000000E+00 0. -1.
     999901    1    3    3    0    0 -0.10639395707E+00  0.64699812913E-02 -0.27262307200E-01  0.88685104057E+00  0.88000000000E+00 0.  1.
        -11    1    4    4    0    0  0.30206321575E-01 -0.17724635074E-02  0.58975703817E-03  0.30268340297E-01  0.51100000000E-03 0. -1.
         11    1    4    4    0    0  0.95452597989E-01 -0.96385371409E-02  0.38831338977E-01  0.10349992207E+00  0.51100000000E-03 0.  1.
</event>
<event>
 8    1  0.1093753E+005  0.1043930E+01  0.7957747E-01            NaN
         13   -1    0    0    0    0  0.00000000000E+00  0.00000000000E+00  0.74505805969E-08  0.10566000000E+00  0.10566000000E+00 0.  1.
     999900   -1    0    0    0    0 -0.00000000000E+00 -0.00000000000E+00 -0.74505805969E-08  0.93827000000E+00  0.93827000000E+00 0.  1.
     999902    2    1    2    0    0  0.33998364310E-02 -0.56372612046E-02 -0.24131612676E-01  0.10189165570E+01  0.10186094825E+01 0.  0.
     999903    2    3    3    0    0 -0.10084436660E+00 -0.65828120736E-01 -0.46105139061E-01  0.13045010893E+00  0.19713429885E-01 0.  0.
         14    1    1    2    0    0 -0.33998364310E-02  0.56372612046E-02  0.24131612676E-01  0.25013443026E-01  0.00000000000E+00 0.  1.
     999901    1    3    3    0    0  0.10424420303E+00  0.60190859532E-01  0.21973526385E-01  0.88846644804E+00  0.88000000000E+00 0. -1.
        -11    1    4    4    0    0 -0.22177489357E-01 -0.15488912520E-01 -0.19462120578E-01  0.33328406857E-01  0.51100000000E-03 0.  1.
         11    1    4    4    0    0 -0.78666877242E-01 -0.50339208216E-01 -0.26643018483E-01  0.97121702074E-01  0.51100000000E-03 0. -1.
</event>
<event>
 8    1  0.1093753E+005  0.1043930E+01  0.7957747E-01            NaN
         13   -1    0    0    0    0  0.00000000000E+00  0.00000000000E+00  0.74505805969E-08  0.10566000000E+00  0.10566000000E+00 0.  1.
     999900   -1    0    0    0    0 -0.00000000000E+00 -0.00000000000E+00 -0.74505805969E-08  0.93827000000E+00  0.93827000000E+00 0. -1.
     999902    2    1    2    0    0  0.13093534588E-01 -0.13587170801E-01 -0.14360946166E-01  0.10202173740E+01  0.10199417638E+01 0.  0.
     999903    2    3    3    0    0 -0.11263739193E+00 -0.33687813416E-01  0.48884131305E-01  0.12880711963E+00  0.19482426479E-01 0.  0.
         14    1    1    2    0    0 -0.13093534588E-01  0.13587170801E-01  0.14360946166E-01  0.23712626029E-01  0.00000000000E+00 0.  1.
     999901    1    3    3    0    0  0.12573092652E+00  0.20100642614E-01 -0.63245077471E-01  0.89141025434E+00  0.88000000000E+00 0. -1.
        -11    1    4    4    0    0 -0.29193887585E-01 -0.11831439825E-01  0.45825594903E-02  0.31835939018E-01  0.51100000000E-03 0. -1.
         11    1    4    4    0    0 -0.83443504343E-01 -0.21856373590E-01  0.44301571814E-01  0.96971180615E-01  0.51100000000E-03 0.  1.
</event>
<event>
 8    1  0.1093753E+005  0.1043930E+01  0.7957747E-01            NaN
         13   -1    0    0    0    0  0.00000000000E+00  0.00000000000E+00  0.74505805969E-08  0.10566000000E+00  0.10566000000E+00 0. -1.
     999900   -1    0    0    0    0 -0.00000000000E+00 -0.00000000000E+00 -0.74505805969E-08  0.93827000000E+00  0.93827000000E+00 0. -1.
     999902    2    1    2    0    0  0.77551576299E-02 -0.76122753101E-02  0.22434657257E-01  0.10190020428E+01  0.10186970895E+01 0.  0.
     999903    2    3    3    0    0  0.11556129916E+00 -0.47183352090E-02  0.59598927123E-01  0.13163981572E+00  0.20008308757E-01 0.  0.
         14    1    1    2    0    0 -0.77551576299E-02  0.76122753101E-02 -0.22434657257E-01  0.24927957227E-01  0.00000000000E+00 0.  1.
     999901    1    3    3    0    0 -0.10780614153E+00 -0.28939401012E-02 -0.37164269867E-01  0.88736222705E+00  0.88000000000E+00 0. -1.
        -11    1    4    4    0    0  0.99979971290E-01 -0.91297851793E-02  0.56299753143E-01  0.11510547755E+00  0.51100000000E-03 0. -1.
         11    1    4    4    0    0  0.15581327867E-01  0.44114499703E-02  0.32991739808E-02  0.16534338175E-01  0.51100000000E-03 0.  1.
</event>
<event>
 8    1  0.1093753E+005  0.1043930E+01  0.7957747E-01            NaN
         13   -1    0    0    0    0  0.00000000000E+00  0.00000000000E+00  0.74505805969E-08  0.10566000000E+00  0.10566000000E+00 0.  1.
     999900   -1    0    0    0    0 -0.00000000000E+00 -0.00000000000E+00 -0.74505805969E-08  0.93827000000E+00  0.93827000000E+00 0. -1.
     999902    2    1    2    0    0  0.12958744056E-01 -0.11769768620E-01  0.17254231690E-01  0.10193502317E+01  0.10190538405E+01 0.  0.
     999903    2    3    3    0    0 -0.26050427860E-01  0.87020409436E-01 -0.86943517370E-01  0.12686023973E+00  0.16827619000E-01 0.  0.
         14    1    1    2    0    0 -0.12958744056E-01  0.11769768620E-01 -0.17254231690E-01  0.24579768348E-01  0.00000000000E+00 0. -1.
     999901    1    3    3    0    0  0.39009171916E-01 -0.98790178056E-01  0.10419774906E+00  0.89248999192E+00  0.88000000000E+00 0.  1.
        -11    1    4    4    0    0 -0.19556751535E-01  0.50297762895E-01 -0.41549074524E-01  0.68109604298E-01  0.51100000000E-03 0.  1.
         11    1    4    4    0    0 -0.64936763251E-02  0.36722646541E-01 -0.45394442846E-01  0.58750635430E-01  0.51100000000E-03 0. -1.
</event>
<event>
 8    1  0.1093753E+005  0.1043930E+01  0.7957747E-01            NaN
         13   -1    0    0    0    0  0.00000000000E+00  0.00000000000E+00  0.74505805969E-08  0.10566000000E+00  0.10566000000E+00 0. -1.
     999900   -1    0    0    0    0 -0.00000000000E+00 -0.00000000000E+00 -0.74505805969E-08  0.93827000000E+00  0.93827000000E+00 0. -1.
     999902    2    1    2    0    0 -0.10274212951E-02  0.93326637910E-02 -0.23472579398E-01  0.10186492526E+01  0.10183354965E+01 0.  0.
     999903    2    3    3    0    0 -0.22517519094E-01 -0.73238132030E-01  0.98143913670E-01  0.12619738718E+00  0.20559428255E-01 0.  0.
         14    1    1    2    0    0  0.10274212951E-02 -0.93326637910E-02  0.23472579398E-01  0.25280747449E-01  0.00000000000E+00 0. -1.
     999901    1    3    3    0    0  0.21490097799E-01  0.82570795821E-01 -0.12161649307E+00  0.89245186538E+00  0.88000000000E+00 0. -1.
        -11    1    4    4    0    0  0.83588148285E-03 -0.18828562950E-01  0.34172739823E-01  0.39028845084E-01  0.51100000000E-03 0. -1.
         11    1    4    4    0    0 -0.23353400577E-01 -0.54409569080E-01  0.63971173847E-01  0.87168542092E-01  0.51100000000E-03 0.  1.
</event>
<event>
 8    1  0.1093753E+005  0.1043930E+01  0.7957747E-01            NaN
         13   -1    0    0    0    0  0.00000000000E+00  0.00000000000E+00  0.74505805969E-08  0.10566000000E+00  0.10566000000E+00 0.  1.
     999900   -1    0    0    0    0 -0.00000000000E+00 -0.00000000000E+00 -0.74505805969E-08  0.93827000000E+00  0.93827000000E+00 0. -1.
     999902    2    1    2    0    0 -0.17311300376E-01 -0.13463264734E-01 -0.89064523864E-02  0.10202600716E+01  0.10199854647E+01 0.  0.
     999903    2    3    3    0    0 -0.94965373946E-01 -0.72562083649E-01  0.53486105423E-01  0.13267026946E+00  0.21376592145E-01 0.  0.
         14    1    1    2    0    0  0.17311300376E-01  0.13463264734E-01  0.89064523864E-02  0.23669928435E-01  0.00000000000E+00 0.  1.
     999901    1    3    3    0    0  0.77654073570E-01  0.59098818916E-01 -0.62392557810E-01  0.88758980211E+00  0.88000000000E+00 0.  1.
        -11    1    4    4    0    0 -0.47498909554E-01 -0.26677772374E-01  0.16149365380E-01  0.56823525681E-01  0.51100000000E-03 0.  1.
         11    1    4    4    0    0 -0.47466464392E-01 -0.45884311275E-01  0.37336740043E-01  0.75846743774E-01  0.51100000000E-03 0. -1.
</event>
<event>
 8    1  0.1093753E+005  0.1043930E+01  0.7957747E-01            NaN
         13   -1    0    0    0    0  0.00000000000E+00  0.00000000000E+00  0.74505805969E-08  0.10566000000E+00  0.10566000000E+00 0.  1.
     999900   -1    0    0    0    0 -0.00000000000E+00 -0.00000000000E+00 -0.74505805969E-08  0.93827000000E+00  0.93827000000E+00 0.  1.
     999902    2    1    2    0    0 -0.14578313615E-02  0.11394640241E-01  0.21014212498E-01  0.10199808826E+01  0.10196996816E+01 0.  0.
     999903    2    3    3    0    0  0.14137644885E-01  0.55037390533E-01  0.11909943904E+00  0.13331937997E+00  0.18984028449E-01 0.  0.
         14    1    1    2    0    0  0.14578313615E-02 -0.11394640241E-01 -0.21014212498E-01  0.23949117424E-01  0.00000000000E+00 0.  1.
     999901    1    3    3    0    0 -0.15595476247E-01 -0.43642750292E-01 -0.98085226546E-01  0.88666150260E+00  0.88000000000E+00 0.  1.
        -11    1    4    4    0    0  0.13546469176E-01  0.47541249481E-01  0.84414791400E-01  0.97825330858E-01  0.51100000000E-03 0.  1.
         11    1    4    4    0    0  0.59117570922E-03  0.74961410522E-02  0.34684647643E-01  0.35494049114E-01  0.51100000000E-03 0. -1.
</event>
<event>
 8    1  0.1093753E+005  0.1043930E+01  0.7957747E-01            NaN
         13   -1    0    0    0    0  0.00000000000E+00  0.00000000000E+00  0.74505805969E-08  0.10566000000E+00  0.10566000000E+00 0.  1.
     999900   -1    0    0    0    0 -0.00000000000E+00 -0.00000000000E+00 -0.74505805969E-08  0.93827000000E+00  0.93827000000E+00 0. -1.
     999902    2    1    2    0    0 -0.15838439727E-01  0.62563420670E-02 -0.13903674519E-01  0.10219456839E+01  0.10217091909E+01 0.  0.
     999903    2    3    3    0    0  0.12297259937E+00 -0.10851853428E-01  0.34263249373E-01  0.12959976024E+00  0.19547497977E-01 0.  0.
         14    1    1    2    0    0  0.15838439727E-01 -0.62563420670E-02  0.13903674519E-01  0.21984316096E-01  0.00000000000E+00 0. -1.
     999901    1    3    3    0    0 -0.13881103910E+00  0.17108195495E-01 -0.48166923893E-01  0.89234592367E+00  0.88000000000E+00 0.  1.
        -11    1    4    4    0    0  0.50182616289E-01  0.24156689525E-02  0.20874578216E-01  0.54407164701E-01  0.51100000000E-03 0.  1.
         11    1    4    4    0    0  0.72789983082E-01 -0.13267522380E-01  0.13388671157E-01  0.75192595536E-01  0.51100000000E-03 0. -1.
</event>
<event>
 8    1  0.1211512E+005  0.1043930E+01  0.7957747E-01            NaN
         13   -1    0    0    0    0  0.00000000000E+00  0.00000000000E+00  0.74505805969E-08  0.10566000000E+00  0.10566000000E+00 0. -1.
     999900   -1    0    0    0    0 -0.00000000000E+00 -0.00000000000E+00 -0.74505805969E-08  0.93827000000E+00  0.93827000000E+00 0. -1.
     999902    2    1    2    0    0 -0.22008468670E-01 -0.89426704165E-03  0.77679148762E-02  0.10205737822E+01  0.10203064893E+01 0.  0.
     999903    2    3    3    0    0 -0.78979507676E-01 -0.99831508659E-01 -0.30564012535E-01  0.13237132011E+00  0.19593743182E-01 0.  0.
         14    1    1    2    0    0  0.22008468670E-01  0.89426704165E-03 -0.77679148762E-02  0.23356217764E-01  0.00000000000E+00 0. -1.
     999901    1    3    3    0    0  0.56971039006E-01  0.98937241618E-01  0.38331927412E-01  0.88820246212E+00  0.88000000000E+00 0. -1.
        -11    1    4    4    0    0 -0.35662386977E-01 -0.34970014345E-01 -0.45795562766E-02  0.50159158734E-01  0.51100000000E-03 0.  1.
         11    1    4    4    0    0 -0.43317120699E-01 -0.64861494315E-01 -0.25984456259E-01  0.82212161378E-01  0.51100000000E-03 0. -1.
</event>
<event>
 8    1  0.1093753E+005  0.1043930E+01  0.7957747E-01            NaN
         13   -1    0    0    0    0  0.00000000000E+00  0.00000000000E+00  0.74505805969E-08  0.10566000000E+00  0.10566000000E+00 0. -1.
     999900   -1    0    0    0    0 -0.00000000000E+00 -0.00000000000E+00 -0.74505805969E-08  0.93827000000E+00  0.93827000000E+00 0.  1.
     999902    2    1    2    0    0 -0.14532445162E-02 -0.14930071423E-01  0.16813638498E-01  0.10213974149E+01  0.10211488441E+01 0.  0.
     999903    2    3    3    0    0 -0.40042403706E-01 -0.11011567705E+00 -0.58084686756E-01  0.13226346443E+00  0.19772120840E-01 0.  0.
         14    1    1    2    0    0  0.14532445162E-02  0.14930071423E-01 -0.16813638498E-01  0.22532585113E-01  0.00000000000E+00 0.  1.
     999901    1    3    3    0    0  0.38589159189E-01  0.95185605623E-01  0.74898325254E-01  0.88913395045E+00  0.88000000000E+00 0. -1.
        -11    1    4    4    0    0 -0.50250350102E-04 -0.18157521622E-01 -0.52043017850E-02  0.18895607813E-01  0.51100000000E-03 0.  1.
         11    1    4    4    0    0 -0.39992153356E-01 -0.91958155423E-01 -0.52880384971E-01  0.11336785662E+00  0.51100000000E-03 0. -1.
</event>
<event>
 8    1  0.1093753E+005  0.1043930E+01  0.7957747E-01            NaN
         13   -1    0    0    0    0  0.00000000000E+00  0.00000000000E+00  0.74505805969E-08  0.10566000000E+00  0.10566000000E+00 0.  1.
     999900   -1    0    0    0    0 -0.00000000000E+00 -0.00000000000E+00 -0.74505805969E-08  0.93827000000E+00  0.93827000000E+00 0. -1.
     999902    2    1    2    0    0  0.14493380183E-02  0.23354329449E-01 -0.52141557157E-02  0.10199568337E+01  0.10196750609E+01 0.  0.
     999903    2    3    3    0    0  0.64697344907E-01 -0.90780006015E-01  0.60091408649E-01  0.12794126561E+00  0.18199838497E-01 0.  0.
         14    1    1    2    0    0 -0.14493380183E-02 -0.23354329449E-01  0.52141557157E-02  0.23973166344E-01  0.00000000000E+00 0.  1.
     999901    1    3    3    0    0 -0.63248006889E-01  0.11413433546E+00 -0.65305564364E-01  0.89201556805E+00  0.88000000000E+00 0. -1.
        -11    1    4    4    0    0  0.36183108071E-01 -0.60151401696E-01  0.45343653025E-01  0.83568633029E-01  0.51100000000E-03 0. -1.
         11    1    4    4    0    0  0.28514236836E-01 -0.30628604319E-01  0.14747755624E-01  0.44372632577E-01  0.51100000000E-03 0.  1.
</event>
<event>
 8    1  0.1093753E+005  0.1043930E+01  0.7957747E-01            NaN
         13   -1    0    0    0    0  0.00000000000E+00  0.00000000000E+00  0.74505805969E-08  0.10566000000E+00  0.10566000000E+00 0. -1.
     999900   -1    0    0    0    0 -0.00000000000E+00 -0.00000000000E+00 -0.74505805969E-08  0.93827000000E+00  0.93827000000E+00 0. -1.
     999902    2    1    2    0    0 -0.17218555791E-01 -0.21864109700E-01  0.79009368856E-03  0.10160886242E+01  0.10157071183E+01 0.  0.
     999903    2    3    3    0    0  0.12943364423E-01 -0.50167081826E-01  0.11504106337E+00  0.12773954660E+00  0.19966940713E-01 0.  0.
         14    1    1    2    0    0  0.17218555791E-01  0.21864109700E-01 -0.79009368856E-03  0.27841375765E-01  0.00000000000E+00 0. -1.
     999901    1    3    3    0    0 -0.30161920213E-01  0.28302972126E-01 -0.11425096969E+00  0.88834907764E+00  0.88000000000E+00 0. -1.
        -11    1    4    4    0    0  0.62996635532E-02 -0.70751218184E-02  0.38479095353E-01  0.39631363966E-01  0.51100000000E-03 0.  1.
         11    1    4    4    0    0  0.66437008696E-02 -0.43091960007E-01  0.76561968022E-01  0.88108182633E-01  0.51100000000E-03 0. -1.
</event>
<event>
 8    1  0.1093753E+005  0.1043930E+01  0.7957747E-01            NaN
         13   -1    0    0    0    0  0.00000000000E+00  0.00000000000E+00  0.74505805969E-08  0.10566000000E+00  0.10566000000E+00 0. -1.
     999900   -1    0    0    0    0 -0.00000000000E+00 -0.00000000000E+00 -0.74505805969E-08  0.93827000000E+00  0.93827000000E+00 0.  1.
     999902    2    1    2    0    0  0.15896876579E-01 -0.10805489228E-01 -0.14740708579E-02  0.10246519771E+01  0.10244706106E+01 0.  0.
     999903    2    3    3    0    0  0.97545117527E-01 -0.59408620286E-01 -0.72506967097E-01  0.13669118294E+00  0.19564894545E-01 0.  0.
         14    1    1    2    0    0 -0.15896876579E-01  0.10805489228E-01  0.14740708579E-02  0.19278022910E-01  0.00000000000E+00 0. -1.
     999901    1    3    3    0    0 -0.81648240948E-01  0.48603131058E-01  0.71032896239E-01  0.88796079415E+00  0.88000000000E+00 0. -1.
        -11    1    4    4    0    0  0.66440216389E-01 -0.50086459751E-01 -0.55654494309E-01  0.10010314512E+00  0.51100000000E-03 0.  1.
         11    1    4    4    0    0  0.31104901138E-01 -0.93221605341E-02 -0.16852472787E-01  0.36588037825E-01  0.51100000000E-03 0. -1.
</event>
<event>
 8    1  0.1093753E+005  0.1043930E+01  0.7957747E-01            NaN
         13   -1    0    0    0    0  0.00000000000E+00  0.00000000000E+00  0.74505805969E-08  0.10566000000E+00  0.10566000000E+00 0. -1.
     999900   -1    0    0    0    0 -0.00000000000E+00 -0.00000000000E+00 -0.74505805969E-08  0.93827000000E+00  0.93827000000E+00 0. -1.
     999902    2    1    2    0    0 -0.13606195666E-01  0.15261449957E-01 -0.79298455109E-02  0.10220000464E+01  0.10217647342E+01 0.  0.
     999903    2    3    3    0    0  0.16833411097E-01  0.10498900116E+00  0.76668459367E-01  0.13287998910E+00  0.21748212495E-01 0.  0.
         14    1    1    2    0    0  0.13606195666E-01 -0.15261449957E-01  0.79298455109E-02  0.21929953605E-01  0.00000000000E+00 0.  1.
     999901    1    3    3    0    0 -0.30439606763E-01 -0.89727551202E-01 -0.84598304878E-01  0.88912005730E+00  0.88000000000E+00 0. -1.
        -11    1    4    4    0    0 -0.10206291493E-02  0.54489145937E-01  0.32521963862E-01  0.63466904472E-01  0.51100000000E-03 0. -1.
         11    1    4    4    0    0  0.17854040246E-01  0.50499855221E-01  0.44146495505E-01  0.69413084623E-01  0.51100000000E-03 0.  1.
</event>
<event>
 7    1  0.1093753E+005  0.1043930E+01  0.7957747E-01            NaN
         13   -1    0    0    0    0  0.00000000000E+00  0.00000000000E+00  0.74505805969E-08  0.10566000000E+00  0.10566000000E+00 0.  1.
     999900   -1    0    0    0    0 -0.00000000000E+00 -0.00000000000E+00 -0.74505805969E-08  0.93827000000E+00  0.93827000000E+00 0.  1.
     999902    2    1    2    0    0 -0.29191642939E-01  0.21611208485E-01  0.39684294096E-02  0.10073931038E+01  0.10067303119E+01 0.  0.
         14    1    1    2    0    0  0.29191642939E-01 -0.21611208485E-01 -0.39684294096E-02  0.36536896169E-01  0.00000000000E+00 0. -1.
     999901    1    3    3    0    0 -0.39050341604E-01 -0.75393752231E-01 -0.33087450310E-01  0.88470555917E+00  0.88000000000E+00 0.  1.
        -11    1    3    3    0    0 -0.32548355568E-02  0.26073341403E-01 -0.18075464230E-01  0.31896655225E-01  0.51100000000E-03 0.  1.
         11    1    3    3    0    0  0.13113534222E-01  0.70931619313E-01  0.55131343950E-01  0.90790889438E-01  0.51100000000E-03 0. -1.
</event>
<event>
 8    1  0.1093753E+005  0.1043930E+01  0.7957747E-01            NaN
         13   -1    0    0    0    0  0.00000000000E+00  0.00000000000E+00  0.74505805969E-08  0.10566000000E+00  0.10566000000E+00 0.  1.
     999900   -1    0    0    0    0 -0.00000000000E+00 -0.00000000000E+00 -0.74505805969E-08  0.93827000000E+00  0.93827000000E+00 0. -1.
     999902    2    1    2    0    0  0.62751819118E-03 -0.18286448165E-01  0.15371630835E-01  0.10200328244E+01  0.10197528563E+01 0.  0.
     999903    2    3    3    0    0 -0.55495190446E-01 -0.10769462088E+00  0.51041625202E-01  0.13300637146E+00  0.20189101416E-01 0.  0.
         14    1    1    2    0    0 -0.62751819118E-03  0.18286448165E-01 -0.15371630835E-01  0.23897175568E-01  0.00000000000E+00 0. -1.
     999901    1    3    3    0    0  0.56122708638E-01  0.89408172718E-01 -0.35669994367E-01  0.88702645297E+00  0.88000000000E+00 0. -1.
        -11    1    4    4    0    0 -0.46665931301E-01 -0.72909466994E-01  0.40682559496E-01  0.95649523207E-01  0.51100000000E-03 0. -1.
         11    1    4    4    0    0 -0.88292591451E-02 -0.34785153889E-01  0.10359065706E-01  0.37356848253E-01  0.51100000000E-03 0.  1.
</event>
<event>
 8    1  0.1093753E+005  0.1043930E+01  0.7957747E-01            NaN
         13   -1    0    0    0    0  0.00000000000E+00  0.00000000000E+00  0.74505805969E-08  0.10566000000E+00  0.10566000000E+00 0.  1.
     999900   -1    0    0    0    0 -0.00000000000E+00 -0.00000000000E+00 -0.74505805969E-08  0.93827000000E+00  0.93827000000E+00 0.  1.
     999902    2    1    2    0    0 -0.52287432379E-02 -0.19714461705E-01  0.12206194620E-01  0.10201604619E+01  0.10198835115E+01 0.  0.
     999903    2    3    3    0    0 -0.37723854996E-01  0.12014708852E+00 -0.12747703154E-01  0.12817398072E+00  0.20190425568E-01 0.  0.
         14    1    1    2    0    0  0.52287432379E-02  0.19714461705E-01 -0.12206194620E-01  0.23769538138E-01  0.00000000000E+00 0.  1.
     999901    1    3    3    0    0  0.32495111758E-01 -0.13986155022E+00  0.24953897774E-01  0.89198648114E+00  0.88000000000E+00 0. -1.
        -11    1    4    4    0    0 -0.35798218803E-01  0.91327287429E-01 -0.47970927150E-02  0.98211298322E-01  0.51100000000E-03 0.  1.
         11    1    4    4    0    0 -0.19256361934E-02  0.28819801086E-01 -0.79506104389E-02  0.29962682403E-01  0.51100000000E-03 0. -1.
</event>
<event>
 8    1  0.1093753E+005  0.1043930E+01  0.7957747E-01            NaN
         13   -1    0    0    0    0  0.00000000000E+00  0.00000000000E+00  0.74505805969E-08  0.10566000000E+00  0.10566000000E+00 0. -1.
     999900   -1    0    0    0    0 -0.00000000000E+00 -0.00000000000E+00 -0.74505805969E-08  0.93827000000E+00  0.93827000000E+00 0.  1.
     999902    2    1    2    0    0 -0.18434322086E-01  0.17868428598E-02  0.15582042573E-01  0.10197263414E+01  0.10194390586E+01 0.  0.
     999903    2    3    3    0    0 -0.34811238077E-01 -0.39889868657E-01 -0.11579006062E+00  0.12884824585E+00  0.19786571279E-01 0.  0.
         14    1    1    2    0    0  0.18434322086E-01 -0.17868428598E-02 -0.15582042573E-01  0.24203658586E-01  0.00000000000E+00 0. -1.
     999901    1    3    3    0    0  0.16376915991E-01  0.41676711517E-01  0.13137210319E+00  0.89087809556E+00  0.88000000000E+00 0. -1.
        -11    1    4    4    0    0 -0.25912687485E-01 -0.18346994325E-01 -0.51973080818E-01  0.60906008112E-01  0.51100000000E-03 0. -1.
         11    1    4    4    0    0 -0.88985505920E-02 -0.21542874332E-01 -0.63816979799E-01  0.67942237737E-01  0.51100000000E-03 0.  1.
</event>
<event>
 8    1  0.1093753E+005  0.1043930E+01  0.7957747E-01            NaN
         13   -1    0    0    0    0  0.00000000000E+00  0.00000000000E+00  0.74505805969E-08  0.10566000000E+00  0.10566000000E+00 0.  1.
     999900   -1    0    0    0    0 -0.00000000000E+00 -0.00000000000E+00 -0.74505805969E-08  0.93827000000E+00  0.93827000000E+00 0.  1.
     999902    2    1    2    0    0 -0.21690315710E-01  0.10615233586E-01  0.10423722469E-02  0.10197589529E+01  0.10194724530E+01 0.  0.
     999903    2    3    3    0    0 -0.56296313980E-01 -0.96533686647E-01 -0.64843963544E-01  0.13014135217E+00  0.15620637344E-01 0.  0.
         14    1    1    2    0    0  0.21690315710E-01 -0.10615233586E-01 -0.10423722469E-02  0.24171047134E-01  0.00000000000E+00 0. -1.
     999901    1    3    3    0    0  0.34605998270E-01  0.10714892023E+00  0.65886335791E-01  0.88961760070E+00  0.88000000000E+00 0. -1.
        -11    1    4    4    0    0 -0.30229242975E-01 -0.59773171988E-01 -0.46188980411E-01  0.81365362733E-01  0.51100000000E-03 0. -1.
         11    1    4    4    0    0 -0.26067071005E-01 -0.36760514659E-01 -0.18654983133E-01  0.48775989437E-01  0.51100000000E-03 0.  1.
</event>
<event>
 8    1  0.1093753E+005  0.1043930E+01  0.7957747E-01            NaN
         13   -1    0    0    0    0  0.00000000000E+00  0.00000000000E+00  0.74505805969E-08  0.10566000000E+00  0.10566000000E+00 0.  1.
     999900   -1    0    0    0    0 -0.00000000000E+00 -0.00000000000E+00 -0.74505805969E-08  0.93827000000E+00  0.93827000000E+00 0. -1.
     999902    2    1    2    0    0  0.13947357707E-01 -0.17473911891E-01  0.94395767563E-02  0.10196612548E+01  0.10193724062E+01 0.  0.
     999903    2    3    3    0    0 -0.44465732028E-01 -0.49846764858E-01 -0.10884568149E+00  0.12923916783E+00  0.19836300861E-01 0.  0.
         14    1    1    2    0    0 -0.13947357707E-01  0.17473911891E-01 -0.94395767563E-02  0.24268745191E-01  0.00000000000E+00 0. -1.
     999901    1    3    3    0    0  0.58413089735E-01  0.32372852967E-01  0.11828525824E+00  0.89042208698E+00  0.88000000000E+00 0.  1.
        -11    1    4    4    0    0 -0.22695569977E-01 -0.26425272912E-01 -0.38246886998E-01  0.51734605740E-01  0.51100000000E-03 0.  1.
         11    1    4    4    0    0 -0.21770162051E-01 -0.23421491946E-01 -0.70598794488E-01  0.77504562090E-01  0.51100000000E-03 0. -1.
</event>
<event>
 8    1  0.1093753E+005  0.1043930E+01  0.7957747E-01            NaN
         13   -1    0    0    0    0  0.00000000000E+00  0.00000000000E+00  0.74505805969E-08  0.10566000000E+00  0.10566000000E+00 0. -1.
     999900   -1    0    0    0    0 -0.00000000000E+00 -0.00000000000E+00 -0.74505805969E-08  0.93827000000E+00  0.93827000000E+00 0.  1.
     999902    2    1    2    0    0 -0.19809033938E-01 -0.24585746065E-01  0.64792123770E-02  0.10116990067E+01  0.10111854643E+01 0.  0.
     999903    2    3    3    0    0 -0.76874772513E-02  0.11821512444E+00 -0.25880840115E-02  0.12005937288E+00  0.19329818596E-01 0.  0.
         14    1    1    2    0    0  0.19809033938E-01  0.24585746065E-01 -0.64792123770E-02  0.32230993285E-01  0.00000000000E+00 0.  1.
     999901    1    3    3    0    0 -0.12121556687E-01 -0.14280087050E+00  0.90672963885E-02  0.89163963383E+00  0.88000000000E+00 0.  1.
        -11    1    4    4    0    0  0.38353752813E-02  0.79160103382E-02  0.21070667313E-02  0.90594798103E-02  0.51100000000E-03 0.  1.
         11    1    4    4    0    0 -0.11522852533E-01  0.11029911410E+00 -0.46951507428E-02  0.11099989307E+00  0.51100000000E-03 0. -1.
</event>
<event>
 8    1  0.1093753E+005  0.1043930E+01  0.7957747E-01            NaN
         13   -1    0    0    0    0  0.00000000000E+00  0.00000000000E+00  0.74505805969E-08  0.10566000000E+00  0.10566000000E+00 0.  1.
     999900   -1    0    0    0    0 -0.00000000000E+00 -0.00000000000E+00 -0.74505805969E-08  0.93827000000E+00  0.93827000000E+00 0. -1.
     999902    2    1    2    0    0  0.85126846367E-02  0.21937430752E-01 -0.70032236497E-02  0.10193787921E+01  0.10190830977E+01 0.  0.
     999903    2    3    3    0    0 -0.21057075227E-01  0.15368484437E-01 -0.12663178242E+00  0.13076835224E+00  0.19625567497E-01 0.  0.
         14    1    1    2    0    0 -0.85126846367E-02 -0.21937430752E-01  0.70032236497E-02  0.24551207897E-01  0.00000000000E+00 0. -1.
     999901    1    3    3    0    0  0.29569759864E-01  0.65689463148E-02  0.11962855877E+00  0.88861043986E+00  0.88000000000E+00 0.  1.
        -11    1    4    4    0    0 -0.13661525993E-01 -0.17558324572E-02 -0.46993524159E-01  0.48973183213E-01  0.51100000000E-03 0.  1.
         11    1    4    4    0    0 -0.73955492339E-02  0.17124316894E-01 -0.79638258257E-01  0.81795169031E-01  0.51100000000E-03 0. -1.
</event>
<event>
 8    1  0.1093753E+005  0.1043930E+01  0.7957747E-01            NaN
         13   -1    0    0    0    0  0.00000000000E+00  0.00000000000E+00  0.74505805969E-08  0.10566000000E+00  0.10566000000E+00 0. -1.
     999900   -1    0    0    0    0 -0.00000000000E+00 -0.00000000000E+00 -0.74505805969E-08  0.93827000000E+00  0.93827000000E+00 0. -1.
     999902    2    1    2    0    0  0.15185458217E-01 -0.13903958893E-01 -0.12588292868E-01  0.10197973803E+01  0.10195118016E+01 0.  0.
     999903    2    3    3    0    0  0.11781237889E+00 -0.30237439042E-01  0.46487193689E-01  0.13171575091E+00  0.19847431117E-01 0.  0.
         14    1    1    2    0    0 -0.15185458217E-01  0.13903958893E-01  0.12588292868E-01  0.24132619657E-01  0.00000000000E+00 0. -1.
     999901    1    3    3    0    0 -0.10262692067E+00  0.16333480149E-01 -0.59075486557E-01  0.88808162943E+00  0.88000000000E+00 0. -1.
        -11    1    4    4    0    0  0.82885500391E-01 -0.20015029603E-01  0.22710593275E-01  0.88241938742E-01  0.51100000000E-03 0. -1.
         11    1    4    4    0    0  0.34926878499E-01 -0.10222409439E-01  0.23776600414E-01  0.43473812170E-01  0.51100000000E-03 0.  1.
</event>
<event>
 8    1  0.1093753E+005  0.1043930E+01  0.7957747E-01            NaN
         13   -1    0    0    0    0  0.00000000000E+00  0.00000000000E+00  0.74505805969E-08  0.10566000000E+00  0.10566000000E+00 0. -1.
     999900   -1    0    0    0    0 -0.00000000000E+00 -0.00000000000E+00 -0.74505805969E-08  0.93827000000E+00  0.93827000000E+00 0.  1.
     999902    2    1    2    0    0 -0.16700513254E-01 -0.13648199798E-01  0.11670316590E-01  0.10194070151E+01  0.10191120084E+01 0.  0.
     999903    2    3    3    0    0 -0.11095723555E+00 -0.64232758804E-01  0.30339377171E-01  0.13273251948E+00  0.16127259350E-01 0.  0.
         14    1    1    2    0    0  0.16700513254E-01  0.13648199798E-01 -0.11670316590E-01  0.24522984932E-01  0.00000000000E+00 0. -1.
     999901    1    3    3    0    0  0.94256722301E-01  0.50584559006E-01 -0.18669060581E-01  0.88667449559E+00  0.88000000000E+00 0.  1.
        -11    1    4    4    0    0 -0.60762154226E-01 -0.26545926981E-01  0.12513363572E-01  0.67480152744E-01  0.51100000000E-03 0.  1.
         11    1    4    4    0    0 -0.50195081328E-01 -0.37686831823E-01  0.17826013599E-01  0.65252366733E-01  0.51100000000E-03 0. -1.
</event>
<event>
 8    1  0.1093753E+005  0.1043930E+01  0.7957747E-01            NaN
         13   -1    0    0    0    0  0.00000000000E+00  0.00000000000E+00  0.74505805969E-08  0.10566000000E+00  0.10566000000E+00 0.  1.
     999900   -1    0    0    0    0 -0.00000000000E+00 -0.00000000000E+00 -0.74505805969E-08  0.93827000000E+00  0.93827000000E+00 0. -1.
     999902    2    1    2    0    0 -0.18457502427E-01  0.36895761052E-03 -0.11906022282E-01  0.10219625493E+01  0.10217264229E+01 0.  0.
     999903    2    3    3    0    0  0.66551754167E-01  0.90977990873E-02  0.10903831055E+00  0.12958914197E+00  0.19801177192E-01 0.  0.
         14    1    1    2    0    0  0.18457502427E-01 -0.36895761052E-03  0.11906022282E-01  0.21967450743E-01  0.00000000000E+00 0. -1.
     999901    1    3    3    0    0 -0.85009256594E-01 -0.87288414768E-02 -0.12094433284E+00  0.89237340728E+00  0.88000000000E+00 0. -1.
        -11    1    4    4    0    0  0.14351989951E-01 -0.61815627242E-02  0.24041130170E-01  0.28678012381E-01  0.51100000000E-03 0. -1.
         11    1    4    4    0    0  0.52199764216E-01  0.15279361811E-01  0.84997180384E-01  0.10091112959E+00  0.51100000000E-03 0.  1.
</event>
<event>
 8    1  0.1093753E+005  0.1043930E+01  0.7957747E-01            NaN
         13   -1    0    0    0    0  0.00000000000E+00  0.00000000000E+00  0.74505805969E-08  0.10566000000E+00  0.10566000000E+00 0.  1.
     999900   -1    0    0    0    0 -0.00000000000E+00 -0.00000000000E+00 -0.74505805969E-08  0.93827000000E+00  0.93827000000E+00 0.  1.
     999902    2    1    2    0    0  0.11976296911E-01 -0.10163084296E-01  0.19192195959E-01  0.10191295896E+01  0.10188277872E+01 0.  0.
     999903    2    3    3    0    0  0.98835795072E-01 -0.72104473011E-01  0.46278844219E-01  0.13227278348E+00  0.19666937010E-01 0.  0.
         14    1    1    2    0    0 -0.11976296911E-01  0.10163084296E-01 -0.19192195959E-01  0.24800410396E-01  0.00000000000E+00 0. -1.
     999901    1    3    3    0    0 -0.86859498161E-01  0.61941388715E-01 -0.27086648260E-01  0.88685680613E+00  0.88000000000E+00 0. -1.
        -11    1    4    4    0    0  0.78290430627E-01 -0.65851809716E-01  0.35948896968E-01  0.10843632549E+00  0.51100000000E-03 0.  1.
         11    1    4    4    0    0  0.20545364445E-01 -0.62526632945E-02  0.10329947251E-01  0.23836457993E-01  0.51100000000E-03 0. -1.
</event>
<event>
 8    1  0.1093753E+005  0.1043930E+01  0.7957747E-01            NaN
         13   -1    0    0    0    0  0.00000000000E+00  0.00000000000E+00  0.74505805969E-08  0.10566000000E+00  0.10566000000E+00 0.  1.
     999900   -1    0    0    0    0 -0.00000000000E+00 -0.00000000000E+00 -0.74505805969E-08  0.93827000000E+00  0.93827000000E+00 0.  1.
     999902    2    1    2    0    0  0.61272392002E-02  0.22523878135E-01  0.37757725151E-02  0.10202841842E+01  0.10200101431E+01 0.  0.
     999903    2    3    3    0    0  0.90666111722E-01  0.12931561293E-01  0.92779763799E-01  0.13171199019E+00  0.18772178816E-01 0.  0.
         14    1    1    2    0    0 -0.61272392002E-02 -0.22523878135E-01 -0.37757725151E-02  0.23645815794E-01  0.00000000000E+00 0. -1.
     999901    1    3    3    0    0 -0.84538872522E-01  0.95923168425E-02 -0.89003991284E-01  0.88857219401E+00  0.88000000000E+00 0.  1.
        -11    1    4    4    0    0  0.25181200447E-01 -0.37130758588E-02  0.31423076990E-01  0.40441942050E-01  0.51100000000E-03 0. -1.
         11    1    4    4    0    0  0.65484911275E-01  0.16644637152E-01  0.61356686809E-01  0.91270048142E-01  0.51100000000E-03 0.  1.
</event>
<event>
 8    1  0.1093753E+005  0.1043930E+01  0.7957747E-01            NaN
         13   -1    0    0    0    0  0.00000000000E+00  0.00000000000E+00  0.74505805969E-08  0.10566000000E+00  0.10566000000E+00 0. -1.
     999900   -1    0    0    0    0 -0.00000000000E+00 -0.00000000000E+00 -0.74505805969E-08  0.93827000000E+00  0.93827000000E+00 0. -1.
     999902    2    1    2    0    0  0.19248604659E-01  0.77524263565E-02  0.10759368857E-01  0.10205553788E+01  0.10202876596E+01 0.  0.
     999903    2    3    3    0    0 -0.26056734250E-01  0.63061259852E-01 -0.10838716840E+00  0.12965272528E+00  0.20158745131E-01 0.  0.
         14    1    1    2    0    0 -0.19248604659E-01 -0.77524263565E-02 -0.10759368857E-01  0.23374621151E-01  0.00000000000E+00 0. -1.
     999901    1    3    3    0    0  0.45305338910E-01 -0.55308833496E-01  0.11914653726E+00  0.89090265357E+00  0.88000000000E+00 0.  1.
        -11    1    4    4    0    0 -0.13967305391E-01  0.54612739958E-01 -0.87047991518E-01  0.10370752593E+00  0.51100000000E-03 0. -1.
         11    1    4    4    0    0 -0.12089428859E-01  0.84485198940E-02 -0.21339176880E-01  0.25945199353E-01  0.51100000000E-03 0.  1.
</event>
<event>
 8    1  0.1093753E+005  0.1043930E+01  0.7957747E-01            NaN
         13   -1    0    0    0    0  0.00000000000E+00  0.00000000000E+00  0.74505805969E-08  0.10566000000E+00  0.10566000000E+00 0. -1.
     999900   -1    0    0    0    0 -0.00000000000E+00 -0.00000000000E+00 -0.74505805969E-08  0.93827000000E+00  0.93827000000E+00 0.  1.
     999902    2    1    2    0    0  0.12562038108E-01  0.21237808959E-02  0.21040592041E-01  0.10193328099E+01  0.10190359933E+01 0.  0.
     999903    2    3    3    0    0  0.86710527399E-01 -0.25782592352E-01  0.94736199259E-01  0.13270560152E+00  0.21269029030E-01 0.  0.
         14    1    1    2    0    0 -0.12562038108E-01 -0.21237808959E-02 -0.21040592041E-01  0.24597190087E-01  0.00000000000E+00 0.  1.
     999901    1    3    3    0    0 -0.74148489291E-01  0.27906373247E-01 -0.73695607218E-01  0.88662720839E+00  0.88000000000E+00 0.  1.
        -11    1    4    4    0    0  0.66195655711E-01 -0.27962538575E-01  0.68029642679E-01  0.98954847292E-01  0.51100000000E-03 0.  1.
         11    1    4    4    0    0  0.20514871687E-01  0.21799462238E-02  0.26706556580E-01  0.33750754232E-01  0.51100000000E-03 0. -1.
</event>
<event>
 8    1  0.1093753E+005  0.1043930E+01  0.7957747E-01            NaN
         13   -1    0    0    0    0  0.00000000000E+00  0.00000000000E+00  0.74505805969E-08  0.10566000000E+00  0.10566000000E+00 0. -1.
     999900   -1    0    0    0    0 -0.00000000000E+00 -0.00000000000E+00 -0.74505805969E-08  0.93827000000E+00  0.93827000000E+00 0.  1.
     999902    2    1    2    0    0  0.69915391655E-02  0.18117110392E-01  0.13617421541E-01  0.10202119588E+01  0.10199362212E+01 0.  0.
     999903    2    3    3    0    0  0.31564164880E-01 -0.12159608939E+00 -0.19684388431E-01  0.12822955837E+00  0.16535992057E-01 0.  0.
         14    1    1    2    0    0 -0.69915391655E-02 -0.18117110392E-01 -0.13617421541E-01  0.23718041198E-01  0.00000000000E+00 0.  1.
     999901    1    3    3    0    0 -0.24572625714E-01  0.13971319978E+00  0.33301809972E-01  0.89198240043E+00  0.88000000000E+00 0. -1.
        -11    1    4    4    0    0  0.17332013404E-01 -0.83493757159E-01 -0.67328662712E-02  0.85540626502E-01  0.51100000000E-03 0.  1.
         11    1    4    4    0    0  0.14232151476E-01 -0.38102332230E-01 -0.12951522160E-01  0.42688931871E-01  0.51100000000E-03 0. -1.
</event>
<event>
 8    1  0.1093753E+005  0.1043930E+01  0.7957747E-01            NaN
         13   -1    0    0    0    0  0.00000000000E+00  0.00000000000E+00  0.74505805969E-08  0.10566000000E+00  0.10566000000E+00 0. -1.
     999900   -1    0    0    0    0 -0.00000000000E+00 -0.00000000000E+00 -0.74505805969E-08  0.93827000000E+00  0.93827000000E+00 0. -1.
     999902    2    1    2    0    0 -0.60691102603E-02 -0.11192299719E-01  0.19176295120E-01  0.10209119209E+01  0.10206523983E+01 0.  0.
     999903    2    3    3    0    0 -0.12526853160E+00 -0.33819985233E-01  0.17756447344E-01  0.13258623163E+00  0.20683833855E-01 0.  0.
         14    1    1    2    0    0  0.60691102603E-02  0.11192299719E-01 -0.19176295120E-01  0.23018079131E-01  0.00000000000E+00 0.  1.
     999901    1    3    3    0    0  0.11919942134E+00  0.22627685514E-01  0.14198477765E-02  0.88832568924E+00  0.88000000000E+00 0. -1.
        -11    1    4    4    0    0 -0.22660251430E-01 -0.44874454343E-02 -0.45761506763E-02  0.23554754030E-01  0.51100000000E-03 0. -1.
         11    1    4    4    0    0 -0.10260828017E+00 -0.29332539799E-01  0.22332598020E-01  0.10903147760E+00  0.51100000000E-03 0.  1.
</event>
<event>
 8    1  0.1093753E+005  0.1043930E+01  0.7957747E-01            NaN
         13   -1    0    0    0    0  0.00000000000E+00  0.00000000000E+00  0.74505805969E-08  0.10566000000E+00  0.10566000000E+00 0.  1.
     999900   -1    0    0    0    0 -0.00000000000E+00 -0.00000000000E+00 -0.74505805969E-08  0.93827000000E+00  0.93827000000E+00 0.  1.
     999902    2    1    2    0    0 -0.10623182539E-02 -0.40342292494E-02  0.22519537108E-01  0.10210273129E+01  0.10207704152E+01 0.  0.
     999903    2    3    3    0    0 -0.57400112545E-01 -0.86811641528E-01 -0.75424028554E-01  0.12994988128E+00  0.19161250929E-01 0.  0.
         14    1    1    2    0    0  0.10623182539E-02  0.40342292494E-02 -0.22519537108E-01  0.22902687119E-01  0.00000000000E+00 0. -1.
     999901    1    3    3    0    0  0.56337794291E-01  0.82777412279E-01  0.97943565662E-01  0.89107743160E+00  0.88000000000E+00 0. -1.
        -11    1    4    4    0    0 -0.10559405567E-01 -0.25139472025E-01 -0.28261348292E-01  0.39274152161E-01  0.51100000000E-03 0.  1.
         11    1    4    4    0    0 -0.46840706978E-01 -0.61672169503E-01 -0.47162680262E-01  0.90675729123E-01  0.51100000000E-03 0. -1.
</event>
<event>
 8    1  0.1093753E+005  0.1043930E+01  0.7957747E-01            NaN
         13   -1    0    0    0    0  0.00000000000E+00  0.00000000000E+00  0.74505805969E-08  0.10566000000E+00  0.10566000000E+00 0.  1.
     999900   -1    0    0    0    0 -0.00000000000E+00 -0.00000000000E+00 -0.74505805969E-08  0.93827000000E+00  0.93827000000E+00 0. -1.
     999902    2    1    2    0    0 -0.14929074492E-01  0.16890677615E-01  0.72553621926E-02  0.10202485191E+01  0.10199736410E+01 0.  0.
     999903    2    3    3    0    0 -0.64672092755E-01  0.11415207467E+00 -0.11941675569E-01  0.13328590804E+00  0.20232496947E-01 0.  0.
         14    1    1    2    0    0  0.14929074492E-01 -0.16890677615E-01 -0.72553621926E-02  0.23681480867E-01  0.00000000000E+00 0.  1.
     999901    1    3    3    0    0  0.49743018263E-01 -0.97261397057E-01  0.19197037762E-01  0.88696261110E+00  0.88000000000E+00 0.  1.
        -11    1    4    4    0    0 -0.26837134737E-01  0.66673299009E-01 -0.97717100554E-02  0.72534874647E-01  0.51100000000E-03 0.  1.
         11    1    4    4    0    0 -0.37834958018E-01  0.47478775663E-01 -0.21699655137E-02  0.60751033390E-01  0.51100000000E-03 0. -1.
</event>
<event>
 8    1  0.1093753E+005  0.1043930E+01  0.7957747E-01            NaN
         13   -1    0    0    0    0  0.00000000000E+00  0.00000000000E+00  0.74505805969E-08  0.10566000000E+00  0.10566000000E+00 0. -1.
     999900   -1    0    0    0    0 -0.00000000000E+00 -0.00000000000E+00 -0.74505805969E-08  0.93827000000E+00  0.93827000000E+00 0. -1.
     999902    2    1    2    0    0 -0.40089308821E-02 -0.16189025427E-01 -0.16916848549E-01  0.10201742463E+01  0.10198976208E+01 0.  0.
     999903    2    3    3    0    0  0.62223840051E-01  0.10414700741E+00  0.35425606256E-01  0.12798184923E+00  0.20148814585E-01 0.  0.
         14    1    1    2    0    0  0.40089308821E-02  0.16189025427E-01  0.16916848549E-01  0.23755753744E-01  0.00000000000E+00 0.  1.
     999901    1    3    3    0    0 -0.66232770933E-01 -0.12033603284E+00 -0.52342454805E-01  0.89219239703E+00  0.88000000000E+00 0. -1.
        -11    1    4    4    0    0  0.24181341004E-01  0.34314284455E-01  0.21780619360E-01  0.47295495252E-01  0.51100000000E-03 0.  1.
         11    1    4    4    0    0  0.38042499047E-01  0.69832722956E-01  0.13644986897E-01  0.80686353974E-01  0.51100000000E-03 0. -1.
</event>
<event>
 8    1  0.1093753E+005  0.1043930E+01  0.7957747E-01            NaN
         13   -1    0    0    0    0  0.00000000000E+00  0.00000000000E+00  0.74505805969E-08  0.10566000000E+00  0.10566000000E+00 0.  1.
     999900   -1    0    0    0    0 -0.00000000000E+00 -0.00000000000E+00 -0.74505805969E-08  0.93827000000E+00  0.93827000000E+00 0.  1.
     999902    2    1    2    0    0  0.32315827028E-02  0.21732558715E-01  0.94362224449E-02  0.10200178790E+01  0.10197375564E+01 0.  0.
     999903    2    3    3    0    0  0.87387492598E-01  0.57529905694E-01  0.80183025896E-01  0.13245448557E+00  0.12984960290E-01 0.  0.
         14    1    1    2    0    0 -0.32315827028E-02 -0.21732558715E-01 -0.94362224449E-02  0.23912120966E-01  0.00000000000E+00 0. -1.
     999901    1    3    3    0    0 -0.84155909895E-01 -0.35797346979E-01 -0.70746803451E-01  0.88756339347E+00  0.88000000000E+00 0. -1.
        -11    1    4    4    0    0  0.67902687398E-01  0.41122629258E-01  0.66358595025E-01  0.10346772370E+00  0.51100000000E-03 0.  1.
         11    1    4    4    0    0  0.19484805200E-01  0.16407276436E-01  0.13824430871E-01  0.28986761869E-01  0.51100000000E-03 0. -1.
</event>
<event>
 8    1  0.1093753E+005  0.1043930E+01  0.7957747E-01            NaN
         13   -1    0    0    0    0  0.00000000000E+00  0.00000000000E+00  0.74505805969E-08  0.10566000000E+00  0.10566000000E+00 0. -1.
     999900   -1    0    0    0    0 -0.00000000000E+00 -0.00000000000E+00 -0.74505805969E-08  0.93827000000E+00  0.93827000000E+00 0. -1.
     999902    2    1    2    0    0  0.23359359597E-01 -0.60469548246E-02 -0.27577020032E-02  0.10196435786E+01  0.10193543040E+01 0.  0.
     999903    2    3    3    0    0  0.88099917902E-01 -0.67388372081E-01 -0.69897756460E-01  0.13259121473E+00  0.19797617003E-01 0.  0.
         14    1    1    2    0    0 -0.23359359597E-01  0.60469548246E-02  0.27577020032E-02  0.24286421387E-01  0.00000000000E+00 0. -1.
     999901    1    3    3    0    0 -0.64740558305E-01  0.61341417257E-01  0.67140054456E-01  0.88705236388E+00  0.88000000000E+00 0.  1.
        -11    1    4    4    0    0  0.71567597401E-01 -0.54290043813E-01 -0.65139619390E-01  0.11096288114E+00  0.51100000000E-03 0. -1.
         11    1    4    4    0    0  0.16532320501E-01 -0.13098328269E-01 -0.47581370700E-02  0.21628333592E-01  0.51100000000E-03 0.  1.
</event>
<event>
 8    1  0.1093753E+005  0.1043930E+01  0.7957747E-01            NaN
         13   -1    0    0    0    0  0.00000000000E+00  0.00000000000E+00  0.74505805969E-08  0.10566000000E+00  0.10566000000E+00 0. -1.
     999900   -1    0    0    0    0 -0.00000000000E+00 -0.00000000000E+00 -0.74505805969E-08  0.93827000000E+00  0.93827000000E+00 0.  1.
     999902    2    1    2    0    0 -0.10407988222E-01 -0.12622248162E-01  0.18365558984E-01  0.10193344491E+01  0.10190376725E+01 0.  0.
     999903    2    3    3    0    0  0.11181364743E+00 -0.53937193404E-03  0.62000817546E-01  0.12973444915E+00  0.22007799636E-01 0.  0.
         14    1    1    2    0    0  0.10407988222E-01  0.12622248162E-01 -0.18365558984E-01  0.24595550904E-01  0.00000000000E+00 0. -1.
     999901    1    3    3    0    0 -0.12222163565E+00 -0.12082876228E-01 -0.43635258562E-01  0.88959999995E+00  0.88000000000E+00 0. -1.
        -11    1    4    4    0    0  0.48945205054E-01  0.46282978803E-02  0.38387578379E-01  0.62377251734E-01  0.51100000000E-03 0.  1.
         11    1    4    4    0    0  0.62868442377E-01 -0.51676698143E-02  0.23613239167E-01  0.67357197412E-01  0.51100000000E-03 0. -1.
</event>
<event>
 8    1  0.1093753E+005  0.1043930E+01  0.7957747E-01            NaN
         13   -1    0    0    0    0  0.00000000000E+00  0.00000000000E+00  0.74505805969E-08  0.10566000000E+00  0.10566000000E+00 0.  1.
     999900   -1    0    0    0    0 -0.00000000000E+00 -0.00000000000E+00 -0.74505805969E-08  0.93827000000E+00  0.93827000000E+00 0.  1.
     999902    2    1    2    0    0 -0.17766196354E-01 -0.93642865264E-02 -0.14615715523E-01  0.10190915875E+01  0.10187888481E+01 0.  0.
     999903    2    3    3    0    0  0.26936527457E-01  0.56325699178E-01 -0.11246994269E+00  0.13010960933E+00  0.19515674064E-01 0.  0.
         14    1    1    2    0    0  0.17766196354E-01  0.93642865264E-02  0.14615715523E-01  0.24838412496E-01  0.00000000000E+00 0.  1.
     999901    1    3    3    0    0 -0.44702723811E-01 -0.65689985704E-01  0.97854227162E-01  0.88898197817E+00  0.88000000000E+00 0. -1.
        -11    1    4    4    0    0  0.16229703816E-01  0.30579934697E-01 -0.80830259380E-01  0.87933654789E-01  0.51100000000E-03 0.  1.
         11    1    4    4    0    0  0.10706823641E-01  0.25745764481E-01 -0.31639683305E-01  0.42175954545E-01  0.51100000000E-03 0. -1.
</event>
<event>
 8    1  0.1093753E+005  0.1043930E+01  0.7957747E-01            NaN
         13   -1    0    0    0    0  0.00000000000E+00  0.00000000000E+00  0.74505805969E-08  0.10566000000E+00  0.10566000000E+00 0. -1.
     999900   -1    0    0    0    0 -0.00000000000E+00 -0.00000000000E+00 -0.74505805969E-08  0.93827000000E+00  0.93827000000E+00 0. -1.
     999902    2    1    2    0    0 -0.22548802773E-01 -0.24891456196E-02  0.54848271301E-02  0.10205905981E+01  0.10203236943E+01 0.  0.
     999903    2    3    3    0    0 -0.11350811879E+00  0.50784355162E-01  0.43765248958E-01  0.13347332640E+00  0.20894690312E-01 0.  0.
         14    1    1    2    0    0  0.22548802773E-01  0.24891456196E-02 -0.54848271301E-02  0.23339401900E-01  0.00000000000E+00 0. -1.
     999901    1    3    3    0    0  0.90959316016E-01 -0.53273500781E-01 -0.38280421827E-01  0.88711727170E+00  0.88000000000E+00 0.  1.
        -11    1    4    4    0    0 -0.43417066900E-01  0.28959480186E-01  0.24011021465E-01  0.57449834322E-01  0.51100000000E-03 0. -1.
         11    1    4    4    0    0 -0.70091051889E-01  0.21824874976E-01  0.19754227493E-01  0.76023492076E-01  0.51100000000E-03 0.  1.
</event>
<event>
 8    1  0.1097037E+005  0.1043930E+01  0.7957747E-01            NaN
         13   -1    0    0    0    0  0.00000000000E+00  0.00000000000E+00  0.74505805969E-08  0.10566000000E+00  0.10566000000E+00 0.  1.
     999900   -1    0    0    0    0 -0.00000000000E+00 -0.00000000000E+00 -0.74505805969E-08  0.93827000000E+00  0.93827000000E+00 0.  1.
     999902    2    1    2    0    0  0.23328259214E-01  0.34472025286E-02  0.51367977886E-02  0.10197954278E+01  0.10195098023E+01 0.  0.
     999903    2    3    3    0    0  0.31897584570E-01 -0.82175585211E-01  0.94617341321E-01  0.13108205288E+00  0.21442495222E-01 0.  0.
         14    1    1    2    0    0 -0.23328259214E-01 -0.34472025286E-02 -0.51367977886E-02  0.24134572189E-01  0.00000000000E+00 0.  1.
     999901    1    3    3    0    0 -0.85693253556E-02  0.85622787739E-01 -0.89480543533E-01  0.88871337493E+00  0.88000000000E+00 0.  1.
        -11    1    4    4    0    0  0.55752098446E-02 -0.19205763700E-01  0.35676350646E-01  0.40902413627E-01  0.51100000000E-03 0.  1.
         11    1    4    4    0    0  0.26322374725E-01 -0.62969821511E-01  0.58940990676E-01  0.90179639249E-01  0.51100000000E-03 0. -1.
</event>
<event>
 8    1  0.1093753E+005  0.1043930E+01  0.7957747E-01            NaN
         13   -1    0    0    0    0  0.00000000000E+00  0.00000000000E+00  0.74505805969E-08  0.10566000000E+00  0.10566000000E+00 0. -1.
     999900   -1    0    0    0    0 -0.00000000000E+00 -0.00000000000E+00 -0.74505805969E-08  0.93827000000E+00  0.93827000000E+00 0. -1.
     999902    2    1    2    0    0 -0.57530113625E-02 -0.55745021788E-02 -0.31450898413E-01  0.10114749353E+01  0.10109541105E+01 0.  0.
     999903    2    3    3    0    0 -0.74558839941E-01  0.87537843029E-01  0.32665006488E-01  0.12157887387E+00  0.22192912074E-01 0.  0.
         14    1    1    2    0    0  0.57530113625E-02  0.55745021788E-02  0.31450898413E-01  0.32455064709E-01  0.00000000000E+00 0.  1.
     999901    1    3    3    0    0  0.68805828578E-01 -0.93112345208E-01 -0.64115904901E-01  0.88989606142E+00  0.88000000000E+00 0. -1.
        -11    1    4    4    0    0 -0.11353137294E-01  0.22135545086E-01  0.14594772982E-01  0.28846916682E-01  0.51100000000E-03 0.  1.
         11    1    4    4    0    0 -0.63205702647E-01  0.65402297944E-01  0.18070233506E-01  0.92731957185E-01  0.51100000000E-03 0. -1.
</event>
<event>
 8    1  0.1093753E+005  0.1043930E+01  0.7957747E-01            NaN
         13   -1    0    0    0    0  0.00000000000E+00  0.00000000000E+00  0.74505805969E-08  0.10566000000E+00  0.10566000000E+00 0. -1.
     999900   -1    0    0    0    0 -0.00000000000E+00 -0.00000000000E+00 -0.74505805969E-08  0.93827000000E+00  0.93827000000E+00 0. -1.
     999902    2    1    2    0    0  0.13496201300E-01 -0.88750935851E-02  0.17514416933E-01  0.10201041834E+01  0.10198259045E+01 0.  0.
     999903    2    3    3    0    0 -0.88859629656E-01 -0.79633491172E-01  0.48965366589E-01  0.13079398489E+00  0.21724011119E-01 0.  0.
         14    1    1    2    0    0 -0.13496201300E-01  0.88750935851E-02 -0.17514416933E-01  0.23825816590E-01  0.00000000000E+00 0. -1.
     999901    1    3    3    0    0  0.10235583096E+00  0.70758397587E-01 -0.31450949656E-01  0.88931019852E+00  0.88000000000E+00 0. -1.
        -11    1    4    4    0    0 -0.73086987122E-01 -0.71908747759E-01  0.34971559403E-01  0.10833211333E+00  0.51100000000E-03 0.  1.
         11    1    4    4    0    0 -0.15772642534E-01 -0.77247434128E-02  0.13993807185E-01  0.22461871557E-01  0.51100000000E-03 0. -1.
</event>
<event>
 8    1  0.1093753E+005  0.1043930E+01  0.7957747E-01            NaN
         13   -1    0    0    0    0  0.00000000000E+00  0.00000000000E+00  0.74505805969E-08  0.10566000000E+00  0.10566000000E+00 0.  1.
     999900   -1    0    0    0    0 -0.00000000000E+00 -0.00000000000E+00 -0.74505805969E-08  0.93827000000E+00  0.93827000000E+00 0. -1.
     999902    2    1    2    0    0 -0.13654422066E-01  0.23638592917E-01  0.79577716070E-02  0.10154949434E+01  0.10150967577E+01 0.  0.
     999903    2    3    3    0    0  0.81885716692E-01 -0.41494528912E-01 -0.80191109212E-01  0.12356419108E+00  0.20259042260E-01 0.  0.
         14    1    1    2    0    0  0.13654422066E-01 -0.23638592917E-01 -0.79577716070E-02  0.28435056638E-01  0.00000000000E+00 0.  1.
     999901    1    3    3    0    0 -0.95540138758E-01  0.65133121830E-01  0.88148880819E-01  0.89193075228E+00  0.88000000000E+00 0.  1.
        -11    1    4    4    0    0  0.50016989964E-01 -0.14187662995E-01 -0.46256671949E-01  0.69591162421E-01  0.51100000000E-03 0. -1.
         11    1    4    4    0    0  0.31868726728E-01 -0.27306865917E-01 -0.33934437263E-01  0.53973028661E-01  0.51100000000E-03 0.  1.
</event>
<event>
 8    1  0.1093753E+005  0.1043930E+01  0.7957747E-01            NaN
         13   -1    0    0    0    0  0.00000000000E+00  0.00000000000E+00  0.74505805969E-08  0.10566000000E+00  0.10566000000E+00 0.  1.
     999900   -1    0    0    0    0 -0.00000000000E+00 -0.00000000000E+00 -0.74505805969E-08  0.93827000000E+00  0.93827000000E+00 0.  1.
     999902    2    1    2    0    0  0.44436610705E-02  0.15114768830E-01 -0.18116818159E-01  0.10199212212E+01  0.10196386007E+01 0.  0.
     999903    2    3    3    0    0 -0.76200696996E-01 -0.43610624781E-01 -0.95146005535E-01  0.13094108638E+00  0.19605430823E-01 0.  0.
         14    1    1    2    0    0 -0.44436610705E-02 -0.15114768830E-01  0.18116818159E-01  0.24008778826E-01  0.00000000000E+00 0.  1.
     999901    1    3    3    0    0  0.80644358066E-01  0.58725393612E-01  0.77029187376E-01  0.88898013479E+00  0.88000000000E+00 0.  1.
        -11    1    4    4    0    0 -0.42655093994E-01 -0.32215632848E-01 -0.47118385099E-01  0.71258033784E-01  0.51100000000E-03 0.  1.
         11    1    4    4    0    0 -0.33545603002E-01 -0.11394991933E-01 -0.48027620436E-01  0.59683052600E-01  0.51100000000E-03 0. -1.
</event>
<event>
 8    1  0.1093753E+005  0.1043930E+01  0.7957747E-01            NaN
         13   -1    0    0    0    0  0.00000000000E+00  0.00000000000E+00  0.74505805969E-08  0.10566000000E+00  0.10566000000E+00 0. -1.
     999900   -1    0    0    0    0 -0.00000000000E+00 -0.00000000000E+00 -0.74505805969E-08  0.93827000000E+00  0.93827000000E+00 0.  1.
     999902    2    1    2    0    0  0.18999902536E-01  0.28742634370E-02  0.13173894971E-01  0.10206317341E+01  0.10203657812E+01 0.  0.
     999903    2    3    3    0    0 -0.93315401510E-01  0.86859535947E-01 -0.66536608416E-02  0.12930610026E+00  0.20577978934E-01 0.  0.
         14    1    1    2    0    0 -0.18999902536E-01 -0.28742634370E-02 -0.13173894971E-01  0.23298265931E-01  0.00000000000E+00 0.  1.
     999901    1    3    3    0    0  0.11231530405E+00 -0.83985272510E-01  0.19827555812E-01  0.89132563381E+00  0.88000000000E+00 0.  1.
        -11    1    4    4    0    0 -0.71513542538E-01  0.56241615290E-01 -0.10188568725E-01  0.91549844950E-01  0.51100000000E-03 0.  1.
         11    1    4    4    0    0 -0.21801858972E-01  0.30617920657E-01  0.35349078835E-02  0.37756255306E-01  0.51100000000E-03 0. -1.
</event>
<event>
 8    1  0.1093753E+005  0.1043930E+01  0.7957747E-01            NaN
         13   -1    0    0    0    0  0.00000000000E+00  0.00000000000E+00  0.74505805969E-08  0.10566000000E+00  0.10566000000E+00 0. -1.
     999900   -1    0    0    0    0 -0.00000000000E+00 -0.00000000000E+00 -0.74505805969E-08  0.93827000000E+00  0.93827000000E+00 0. -1.
     999902    2    1    2    0    0 -0.24142340316E-01  0.21349434235E-02  0.88818518763E-02  0.10181172537E+01  0.10177899805E+01 0.  0.
     999903    2    3    3    0    0 -0.83945877644E-01 -0.95321500865E-01  0.22213483315E-01  0.13061967397E+00  0.20855730304E-01 0.  0.
         14    1    1    2    0    0  0.24142340316E-01 -0.21349434235E-02 -0.88818518763E-02  0.25812746311E-01  0.00000000000E+00 0.  1.
     999901    1    3    3    0    0  0.59803537328E-01  0.97456444289E-01 -0.13331631438E-01  0.88749757972E+00  0.88000000000E+00 0. -1.
        -11    1    4    4    0    0 -0.56559819151E-01 -0.72086843014E-01  0.23791730900E-01  0.94666961810E-01  0.51100000000E-03 0. -1.
         11    1    4    4    0    0 -0.27386058493E-01 -0.23234657852E-01 -0.15782475854E-02  0.35952712161E-01  0.51100000000E-03 0.  1.
</event>
<event>
 8    1  0.1093753E+005  0.1043930E+01  0.7957747E-01            NaN
         13   -1    0    0    0    0  0.00000000000E+00  0.00000000000E+00  0.74505805969E-08  0.10566000000E+00  0.10566000000E+00 0. -1.
     999900   -1    0    0    0    0 -0.00000000000E+00 -0.00000000000E+00 -0.74505805969E-08  0.93827000000E+00  0.93827000000E+00 0.  1.
     999902    2    1    2    0    0 -0.72528216137E-02  0.12150013227E-01 -0.18770573005E-01  0.10204233913E+01  0.10201526047E+01 0.  0.
     999903    2    3    3    0    0 -0.81877152147E-01 -0.58436080831E-01  0.78348507782E-01  0.12914155973E+00  0.20503906762E-01 0.  0.
         14    1    1    2    0    0  0.72528216137E-02 -0.12150013227E-01  0.18770573005E-01  0.23506608724E-01  0.00000000000E+00 0. -1.
     999901    1    3    3    0    0  0.74624330533E-01  0.70586094058E-01 -0.97119080787E-01  0.89128183154E+00  0.88000000000E+00 0.  1.
        -11    1    4    4    0    0 -0.64028686559E-01 -0.49510834129E-01  0.52472634606E-01  0.96460530281E-01  0.51100000000E-03 0.  1.
         11    1    4    4    0    0 -0.17848465588E-01 -0.89252467023E-02  0.25875873176E-01  0.32681029454E-01  0.51100000000E-03 0. -1.
</event>
<event>
 8    1  0.1093753E+005  0.1043930E+01  0.7957747E-01            NaN
         13   -1    0    0    0    0  0.00000000000E+00  0.00000000000E+00  0.74505805969E-08  0.10566000000E+00  0.10566000000E+00 0.  1.
     999900   -1    0    0    0    0 -0.00000000000E+00 -0.00000000000E+00 -0.74505805969E-08  0.93827000000E+00  0.93827000000E+00 0. -1.
     999902    2    1    2    0    0 -0.12604926491E-01 -0.19955654244E-01 -0.18501782881E-02  0.10202543697E+01  0.10199796290E+01 0.  0.
     999903    2    3    3    0    0 -0.71821638017E-01  0.10560091731E+00 -0.11042911426E-01  0.12932475528E+00  0.17118557529E-01 0.  0.
         14    1    1    2    0    0  0.12604926491E-01  0.19955654244E-01  0.18501782881E-02  0.23675630252E-01  0.00000000000E+00 0. -1.
     999901    1    3    3    0    0  0.59216711526E-01 -0.12555657156E+00  0.91927331382E-02  0.89092961446E+00  0.88000000000E+00 0. -1.
        -11    1    4    4    0    0 -0.58162905177E-01  0.89611369972E-01 -0.15119423105E-01  0.10789800389E+00  0.51100000000E-03 0.  1.
         11    1    4    4    0    0 -0.13658732840E-01  0.15989547341E-01  0.40765116786E-02  0.21426751397E-01  0.51100000000E-03 0. -1.
</event>
<event>
 8    1  0.1093753E+005  0.1043930E+01  0.7957747E-01            NaN
         13   -1    0    0    0    0  0.00000000000E+00  0.00000000000E+00  0.74505805969E-08  0.10566000000E+00  0.10566000000E+00 0. -1.
     999900   -1    0    0    0    0 -0.00000000000E+00 -0.00000000000E+00 -0.74505805969E-08  0.93827000000E+00  0.93827000000E+00 0.  1.
     999902    2    1    2    0    0  0.10407696720E-04  0.19710404506E-01  0.17983649664E-01  0.10172483245E+01  0.10168983439E+01 0.  0.
     999903    2    3    3    0    0 -0.10474111819E-01  0.80804665340E-02  0.12803323637E+00  0.13025560063E+00  0.19975257729E-01 0.  0.
         14    1    1    2    0    0 -0.10407696720E-04 -0.19710404506E-01 -0.17983649664E-01  0.26681675535E-01  0.00000000000E+00 0. -1.
     999901    1    3    3    0    0  0.10484519516E-01  0.11629937972E-01 -0.11004958671E+00  0.88699272384E+00  0.88000000000E+00 0.  1.
        -11    1    4    4    0    0  0.23519185383E-03  0.12307786850E-01  0.72451197383E-01  0.73491319594E-01  0.51100000000E-03 0.  1.
         11    1    4    4    0    0 -0.10709303673E-01 -0.42273203164E-02  0.55582038988E-01  0.56764281034E-01  0.51100000000E-03 0. -1.
</event>
<event>
 8    1  0.1093753E+005  0.1043930E+01  0.7957747E-01            NaN
         13   -1    0    0    0    0  0.00000000000E+00  0.00000000000E+00  0.74505805969E-08  0.10566000000E+00  0.10566000000E+00 0. -1.
     999900   -1    0    0    0    0 -0.00000000000E+00 -0.00000000000E+00 -0.74505805969E-08  0.93827000000E+00  0.93827000000E+00 0. -1.
     999902    2    1    2    0    0 -0.89814245844E-02 -0.13392924492E-01 -0.17005026741E-01  0.10204948267E+01  0.10202257024E+01 0.  0.
     999903    2    3    3    0    0  0.76644812631E-01  0.89893057152E-01  0.45370915626E-01  0.12814365999E+00  0.20176436364E-01 0.  0.
         14    1    1    2    0    0  0.89814245844E-02  0.13392924492E-01  0.17005026741E-01  0.23435173319E-01  0.00000000000E+00 0. -1.
     999901    1    3    3    0    0 -0.85626237216E-01 -0.10328598164E+00 -0.62375942367E-01  0.89235116669E+00  0.88000000000E+00 0.  1.
        -11    1    4    4    0    0  0.46992996770E-01  0.68976818688E-01  0.33859223147E-01  0.90071368230E-01  0.51100000000E-03 0. -1.
         11    1    4    4    0    0  0.29651815862E-01  0.20916238463E-01  0.11511692479E-01  0.38072291763E-01  0.51100000000E-03 0.  1.
</event>
<event>
 8    1  0.1093753E+005  0.1043930E+01  0.7957747E-01            NaN
         13   -1    0    0    0    0  0.00000000000E+00  0.00000000000E+00  0.74505805969E-08  0.10566000000E+00  0.10566000000E+00 0. -1.
     999900   -1    0    0    0    0 -0.00000000000E+00 -0.00000000000E+00 -0.74505805969E-08  0.93827000000E+00  0.93827000000E+00 0. -1.
     999902    2    1    2    0    0  0.12825502239E-01 -0.88771654773E-02 -0.17801404308E-01  0.10202617181E+01  0.10199871498E+01 0.  0.
     999903    2    3    3    0    0  0.22776924558E-01  0.12505278390E+00  0.15198920793E-01  0.12946135681E+00  0.19293746664E-01 0.  0.
         14    1    1    2    0    0 -0.12825502239E-01  0.88771654773E-02  0.17801404308E-01  0.23668281939E-01  0.00000000000E+00 0.  1.
     999901    1    3    3    0    0 -0.99514223185E-02 -0.13392994938E+00 -0.33000325101E-01  0.89080036125E+00  0.88000000000E+00 0. -1.
        -11    1    4    4    0    0  0.20059381482E-01  0.92662977099E-01  0.19115927573E-01  0.96718591379E-01  0.51100000000E-03 0. -1.
         11    1    4    4    0    0  0.27175430756E-02  0.32389806802E-01 -0.39170067799E-02  0.32742765432E-01  0.51100000000E-03 0.  1.
</event>
<event>
 7    1  0.1093753E+005  0.1043930E+01  0.7957747E-01            NaN
         13   -1    0    0    0    0  0.00000000000E+00  0.00000000000E+00  0.74505805969E-08  0.10566000000E+00  0.10566000000E+00 0.  1.
     999900   -1    0    0    0    0 -0.00000000000E+00 -0.00000000000E+00 -0.74505805969E-08  0.93827000000E+00  0.93827000000E+00 0.  1.
     999903    2    1    2    0    0  0.77767821355E-01 -0.85234905583E-02  0.87612119529E-01  0.11912971842E+00  0.19887744786E-01 0.  0.
         14    1    1    2    0    0 -0.27586970648E-01 -0.26586585604E-01  0.18339254696E-03  0.38313458686E-01  0.00000000000E+00 0. -1.
     999901    1    1    2    0    0 -0.50180850707E-01  0.35110076162E-01 -0.87795512076E-01  0.88648682290E+00  0.88000000000E+00 0. -1.
        -11    1    3    3    0    0  0.50120286240E-01  0.15663232902E-02  0.64523917612E-01  0.81719603073E-01  0.51100000000E-03 0. -1.
         11    1    3    3    0    0  0.27647535116E-01 -0.10089813848E-01  0.23088201917E-01  0.37410115346E-01  0.51100000000E-03 0.  1.
</event>
<event>
 8    1  0.1111612E+005  0.1043930E+01  0.7957747E-01            NaN
         13   -1    0    0    0    0  0.00000000000E+00  0.00000000000E+00  0.74505805969E-08  0.10566000000E+00  0.10566000000E+00 0.  1.
     999900   -1    0    0    0    0 -0.00000000000E+00 -0.00000000000E+00 -0.74505805969E-08  0.93827000000E+00  0.93827000000E+00 0. -1.
     999902    2    1    2    0    0  0.18928012235E-01 -0.14311717165E-01 -0.72965686333E-03  0.10201891640E+01  0.10199128899E+01 0.  0.
     999903    2    3    3    0    0  0.80862508737E-02  0.12645923493E+00  0.61647536305E-02  0.12890832293E+00  0.22847887867E-01 0.  0.
         14    1    1    2    0    0 -0.18928012235E-01  0.14311717165E-01  0.72965686333E-03  0.23740836012E-01  0.00000000000E+00 0. -1.
     999901    1    3    3    0    0  0.10841761362E-01 -0.14077095210E+00 -0.68944104938E-02  0.89128084106E+00  0.88000000000E+00 0.  1.
        -11    1    4    4    0    0 -0.71241711104E-02  0.66710347971E-01  0.23144729702E-02  0.67131529452E-01  0.51100000000E-03 0. -1.
         11    1    4    4    0    0  0.15210421984E-01  0.59748886962E-01  0.38502806602E-02  0.61776793477E-01  0.51100000000E-03 0.  1.
</event>
<event>
 8    1  0.1093753E+005  0.1043930E+01  0.7957747E-01            NaN
         13   -1    0    0    0    0  0.00000000000E+00  0.00000000000E+00  0.74505805969E-08  0.10566000000E+00  0.10566000000E+00 0. -1.
     999900   -1    0    0    0    0 -0.00000000000E+00 -0.00000000000E+00 -0.74505805969E-08  0.93827000000E+00  0.93827000000E+00 0. -1.
     999902    2    1    2    0    0 -0.17778624202E-01  0.14838643531E-01 -0.48672626910E-02  0.10202666303E+01  0.10199921773E+01 0.  0.
     999903    2    3    3    0    0  0.56305800899E-01  0.11714954094E+00  0.13776820395E-02  0.13122499959E+00  0.17992897250E-01 0.  0.
         14    1    1    2    0    0  0.17778624202E-01 -0.14838643531E-01  0.48672626910E-02  0.23663369719E-01  0.00000000000E+00 0.  1.
     999901    1    3    3    0    0 -0.74084425100E-01 -0.10231089741E+00 -0.62449447306E-02  0.88904163069E+00  0.88000000000E+00 0. -1.
        -11    1    4    4    0    0  0.46622002215E-01  0.82330652201E-01 -0.39065264079E-02  0.94696723555E-01  0.51100000000E-03 0.  1.
         11    1    4    4    0    0  0.96837986833E-02  0.34818888740E-01  0.52842084474E-02  0.36528276033E-01  0.51100000000E-03 0. -1.
</event>
<event>
 8    1  0.1093753E+005  0.1043930E+01  0.7957747E-01            NaN
         13   -1    0    0    0    0  0.00000000000E+00  0.00000000000E+00  0.74505805969E-08  0.10566000000E+00  0.10566000000E+00 0. -1.
     999900   -1    0    0    0    0 -0.00000000000E+00 -0.00000000000E+00 -0.74505805969E-08  0.93827000000E+00  0.93827000000E+00 0.  1.
     999902    2    1    2    0    0  0.14982594676E-02 -0.18679355352E-01  0.13741728615E-01  0.10206921386E+01  0.10204275788E+01 0.  0.
     999903    2    3    3    0    0  0.49543708031E-01 -0.82178782608E-02  0.12111417731E+00  0.13280326583E+00  0.21117550539E-01 0.  0.
         14    1    1    2    0    0 -0.14982594676E-02  0.18679355352E-01 -0.13741728615E-01  0.23237861415E-01  0.00000000000E+00 0.  1.
     999901    1    3    3    0    0 -0.48045448564E-01 -0.10461477091E-01 -0.10737244869E+00  0.88788887276E+00  0.88000000000E+00 0.  1.
        -11    1    4    4    0    0  0.31302760105E-01  0.29252231709E-02  0.87366006787E-01  0.92852032739E-01  0.51100000000E-03 0.  1.
         11    1    4    4    0    0  0.18240947927E-01 -0.11143101432E-01  0.33748170520E-01  0.39951233088E-01  0.51100000000E-03 0. -1.
</event>
<event>
 8    1  0.1093753E+005  0.1043930E+01  0.7957747E-01            NaN
         13   -1    0    0    0    0  0.00000000000E+00  0.00000000000E+00  0.74505805969E-08  0.10566000000E+00  0.10566000000E+00 0.  1.
     999900   -1    0    0    0    0 -0.00000000000E+00 -0.00000000000E+00 -0.74505805969E-08  0.93827000000E+00  0.93827000000E+00 0. -1.
     999902    2    1    2    0    0 -0.14127382666E-01 -0.39947161014E-02  0.18160753240E-01  0.10205771917E+01  0.10203099777E+01 0.  0.
     999903    2    3    3    0    0 -0.12549140328E-01  0.12510326724E+00 -0.27056550078E-01  0.13000805643E+00  0.19019186076E-01 0.  0.
         14    1    1    2    0    0  0.14127382666E-01  0.39947161014E-02 -0.18160753240E-01  0.23352808310E-01  0.00000000000E+00 0. -1.
     999901    1    3    3    0    0 -0.15782423376E-02 -0.12909798334E+00  0.45217303318E-01  0.89056913526E+00  0.88000000000E+00 0.  1.
        -11    1    4    4    0    0 -0.74803461255E-02  0.21125344924E-01  0.11926598162E-03  0.22416759839E-01  0.51100000000E-03 0.  1.
         11    1    4    4    0    0 -0.50687942029E-02  0.10397792231E+00 -0.27175816059E-01  0.10759129659E+00  0.51100000000E-03 0. -1.
</event>
<event>
 8    1  0.1093753E+005  0.1043930E+01  0.7957747E-01            NaN
         13   -1    0    0    0    0  0.00000000000E+00  0.00000000000E+00  0.74505805969E-08  0.10566000000E+00  0.10566000000E+00 0. -1.
     999900   -1    0    0    0    0 -0.00000000000E+00 -0.00000000000E+00 -0.74505805969E-08  0.93827000000E+00  0.93827000000E+00 0. -1.
     999902    2    1    2    0    0 -0.11996036071E-01  0.11388254612E-02  0.20193777599E-01  0.10204142508E+01  0.10201432511E+01 0.  0.
     999903    2    3    3    0    0  0.78410179528E-01  0.59198196936E-01  0.84516660811E-01  0.13154890235E+00  0.22571330962E-01 0.  0.
         14    1    1    2    0    0  0.11996036071E-01 -0.11388254612E-02 -0.20193777599E-01  0.23515749161E-01  0.00000000000E+00 0.  1.
     999901    1    3    3    0    0 -0.90406215600E-01 -0.58059371475E-01 -0.64322883212E-01  0.88886534849E+00  0.88000000000E+00 0. -1.
        -11    1    4    4    0    0  0.91173698037E-02 -0.16032832428E-03  0.44588657157E-02  0.10163402077E-01  0.51100000000E-03 0. -1.
         11    1    4    4    0    0  0.69292809725E-01  0.59358525261E-01  0.80057795096E-01  0.12138550028E+00  0.51100000000E-03 0.  1.
</event>
<event>
 8    1  0.1093753E+005  0.1043930E+01  0.7957747E-01            NaN
         13   -1    0    0    0    0  0.00000000000E+00  0.00000000000E+00  0.74505805969E-08  0.10566000000E+00  0.10566000000E+00 0. -1.
     999900   -1    0    0    0    0 -0.00000000000E+00 -0.00000000000E+00 -0.74505805969E-08  0.93827000000E+00  0.93827000000E+00 0. -1.
     999902    2    1    2    0    0 -0.18502995163E-01 -0.40872033903E-02  0.15430645126E-01  0.10194929202E+01  0.10192000017E+01 0.  0.
     999903    2    3    3    0    0 -0.11224530744E-01 -0.12816175622E+00 -0.57304864493E-02  0.13050739487E+00  0.21164021178E-01 0.  0.
         14    1    1    2    0    0  0.18502995163E-01  0.40872033903E-02 -0.15430645126E-01  0.24437079829E-01  0.00000000000E+00 0.  1.
     999901    1    3    3    0    0 -0.72784644191E-02  0.12407455283E+00  0.21161131575E-01  0.88898552530E+00  0.88000000000E+00 0. -1.
        -11    1    4    4    0    0 -0.74959464708E-04 -0.18885015494E-01  0.65099602248E-02  0.19982245426E-01  0.51100000000E-03 0.  1.
         11    1    4    4    0    0 -0.11149571279E-01 -0.10927674073E+00 -0.12240446674E-01  0.11052514944E+00  0.51100000000E-03 0. -1.
</event>
<event>
 8    1  0.1093753E+005  0.1043930E+01  0.7957747E-01            NaN
         13   -1    0    0    0    0  0.00000000000E+00  0.00000000000E+00  0.74505805969E-08  0.10566000000E+00  0.10566000000E+00 0.  1.
     999900   -1    0    0    0    0 -0.00000000000E+00 -0.00000000000E+00 -0.74505805969E-08  0.93827000000E+00  0.93827000000E+00 0. -1.
     999902    2    1    2    0    0  0.92465266656E-03 -0.23050125123E-01  0.19329363848E-02  0.10207804969E+01  0.10205179682E+01 0.  0.
     999903    2    3    3    0    0 -0.63592295109E-02 -0.11896121594E+00  0.57697671347E-01  0.13378461306E+00  0.19418823732E-01 0.  0.
         14    1    1    2    0    0 -0.92465266656E-03  0.23050125123E-01 -0.19329363848E-02  0.23149503101E-01  0.00000000000E+00 0.  1.
     999901    1    3    3    0    0  0.72838821775E-02  0.95911090817E-01 -0.55764734962E-01  0.88699588384E+00  0.88000000000E+00 0. -1.
        -11    1    4    4    0    0 -0.95512550870E-02 -0.27202539070E-01  0.15487346310E-01  0.32731080372E-01  0.51100000000E-03 0. -1.
         11    1    4    4    0    0  0.31920255761E-02 -0.91758676870E-01  0.42210325036E-01  0.10105353269E+00  0.51100000000E-03 0.  1.
</event>
<event>
 7    1  0.1093753E+005  0.1043930E+01  0.7957747E-01            NaN
         13   -1    0    0    0    0  0.00000000000E+00  0.00000000000E+00  0.74505805969E-08  0.10566000000E+00  0.10566000000E+00 0. -1.
     999900   -1    0    0    0    0 -0.00000000000E+00 -0.00000000000E+00 -0.74505805969E-08  0.93827000000E+00  0.93827000000E+00 0.  1.
     999903    2    1    2    0    0 -0.30879920082E-01  0.11024519920E+00  0.75569671625E-02  0.11631926146E+00  0.19117777629E-01 0.  0.
         14    1    1    2    0    0 -0.38277959592E-01 -0.36214140512E-02 -0.64253760683E-03  0.38454254444E-01  0.00000000000E+00 0.  1.
     999901    1    1    2    0    0  0.69157879675E-01 -0.10662378515E+00 -0.69144295557E-02  0.88915648410E+00  0.88000000000E+00 0. -1.
        -11    1    3    3    0    0 -0.26880863821E-01  0.64113180278E-01  0.84390994001E-03  0.69527361737E-01  0.51100000000E-03 0.  1.
         11    1    3    3    0    0 -0.39990562615E-02  0.46132018925E-01  0.67130572225E-02  0.46791899719E-01  0.51100000000E-03 0. -1.
</event>
<event>
 8    1  0.1093753E+005  0.1043930E+01  0.7957747E-01            NaN
         13   -1    0    0    0    0  0.00000000000E+00  0.00000000000E+00  0.74505805969E-08  0.10566000000E+00  0.10566000000E+00 0. -1.
     999900   -1    0    0    0    0 -0.00000000000E+00 -0.00000000000E+00 -0.74505805969E-08  0.93827000000E+00  0.93827000000E+00 0.  1.
     999902    2    1    2    0    0  0.15180881156E-01 -0.10965174613E-01 -0.13154475177E-01  0.10210447553E+01  0.10207882532E+01 0.  0.
     999903    2    3    3    0    0 -0.12317232706E+00  0.22730766800E-01  0.17267073140E-01  0.12907923060E+00  0.25984342271E-01 0.  0.
         14    1    1    2    0    0 -0.15180881156E-01  0.10965174613E-01  0.13154475177E-01  0.22885244682E-01  0.00000000000E+00 0. -1.
     999901    1    3    3    0    0  0.13835320822E+00 -0.33695941413E-01 -0.30421548317E-01  0.89196552472E+00  0.88000000000E+00 0. -1.
        -11    1    4    4    0    0 -0.77232138263E-01  0.51483886710E-02  0.19542699032E-01  0.79834123613E-01  0.51100000000E-03 0.  1.
         11    1    4    4    0    0 -0.45940188798E-01  0.17582378129E-01 -0.22756258922E-02  0.49245106982E-01  0.51100000000E-03 0. -1.
</event>
<event>
 8    1  0.1093753E+005  0.1043930E+01  0.7957747E-01            NaN
         13   -1    0    0    0    0  0.00000000000E+00  0.00000000000E+00  0.74505805969E-08  0.10566000000E+00  0.10566000000E+00 0.  1.
     999900   -1    0    0    0    0 -0.00000000000E+00 -0.00000000000E+00 -0.74505805969E-08  0.93827000000E+00  0.93827000000E+00 0.  1.
     999902    2    1    2    0    0  0.63693710353E-02 -0.50193195396E-02 -0.21861079805E-01  0.10206132835E+01  0.10203469044E+01 0.  0.
     999903    2    3    3    0    0 -0.94221220454E-01 -0.79330881253E-01 -0.41754966999E-01  0.13154835788E+00  0.19760214759E-01 0.  0.
         14    1    1    2    0    0 -0.63693710353E-02  0.50193195396E-02  0.21861079805E-01  0.23316716455E-01  0.00000000000E+00 0.  1.
     999901    1    3    3    0    0  0.10059059149E+00  0.74311561714E-01  0.19893887194E-01  0.88906492567E+00  0.88000000000E+00 0. -1.
        -11    1    4    4    0    0 -0.39613242373E-01 -0.43228220987E-01 -0.13071651784E-01  0.60075096857E-01  0.51100000000E-03 0. -1.
         11    1    4    4    0    0 -0.54607978082E-01 -0.36102660266E-01 -0.28683315215E-01  0.71473261022E-01  0.51100000000E-03 0.  1.
</event>
<event>
 8    1  0.1093753E+005  0.1043930E+01  0.7957747E-01            NaN
         13   -1    0    0    0    0  0.00000000000E+00  0.00000000000E+00  0.74505805969E-08  0.10566000000E+00  0.10566000000E+00 0.  1.
     999900   -1    0    0    0    0 -0.00000000000E+00 -0.00000000000E+00 -0.74505805969E-08  0.93827000000E+00  0.93827000000E+00 0.  1.
     999902    2    1    2    0    0 -0.16191601862E-01  0.23307657514E-02  0.16262999286E-01  0.10208630196E+01  0.10206023805E+01 0.  0.
     999903    2    3    3    0    0 -0.23981659044E-01 -0.12328917703E+00 -0.30276886280E-01  0.13069055541E+00  0.19697469104E-01 0.  0.
         14    1    1    2    0    0  0.16191601862E-01 -0.23307657514E-02 -0.16262999286E-01  0.23066980418E-01  0.00000000000E+00 0. -1.
     999901    1    3    3    0    0  0.77900571817E-02  0.12561994278E+00  0.46539885566E-01  0.89017246417E+00  0.88000000000E+00 0.  1.
        -11    1    4    4    0    0 -0.23046064103E-01 -0.69609625091E-01 -0.20252291185E-01  0.76072579785E-01  0.51100000000E-03 0. -1.
         11    1    4    4    0    0 -0.93559494033E-03 -0.53679551936E-01 -0.10024595095E-01  0.54617975629E-01  0.51100000000E-03 0.  1.
</event>
<event>
 8    1  0.1093753E+005  0.1043930E+01  0.7957747E-01            NaN
         13   -1    0    0    0    0  0.00000000000E+00  0.00000000000E+00  0.74505805969E-08  0.10566000000E+00  0.10566000000E+00 0. -1.
     999900   -1    0    0    0    0 -0.00000000000E+00 -0.00000000000E+00 -0.74505805969E-08  0.93827000000E+00  0.93827000000E+00 0.  1.
     999902    2    1    2    0    0  0.28221902864E-02 -0.17883981895E-01  0.14622722738E-01  0.10206571491E+01  0.10203917829E+01 0.  0.
     999903    2    3    3    0    0 -0.23455925942E-01 -0.12842815083E+00 -0.14325859226E-01  0.13287982736E+00  0.20195244246E-01 0.  0.
         14    1    1    2    0    0 -0.28221902864E-02  0.17883981895E-01 -0.14622722738E-01  0.23272850851E-01  0.00000000000E+00 0.  1.
     999901    1    3    3    0    0  0.26278116228E-01  0.11054416894E+00  0.28948581965E-01  0.88777732179E+00  0.88000000000E+00 0. -1.
        -11    1    4    4    0    0 -0.51834496217E-02 -0.82610055714E-01 -0.92617745552E-02  0.83290641996E-01  0.51100000000E-03 0.  1.
         11    1    4    4    0    0 -0.18272476320E-01 -0.45818095116E-01 -0.50640846711E-02  0.49589185369E-01  0.51100000000E-03 0. -1.
</event>
<event>
 8    1  0.1093753E+005  0.1043930E+01  0.7957747E-01            NaN
         13   -1    0    0    0    0  0.00000000000E+00  0.00000000000E+00  0.74505805969E-08  0.10566000000E+00  0.10566000000E+00 0.  1.
     999900   -1    0    0    0    0 -0.00000000000E+00 -0.00000000000E+00 -0.74505805969E-08  0.93827000000E+00  0.93827000000E+00 0.  1.
     999902    2    1    2    0    0 -0.17411206854E-02 -0.18942311737E-01  0.12762006388E-01  0.10210234184E+01  0.10207664323E+01 0.  0.
     999903    2    3    3    0    0 -0.29621631808E-02 -0.22646991732E-01 -0.12655906991E+00  0.13005451997E+00  0.19373160428E-01 0.  0.
         14    1    1    2    0    0  0.17411206854E-02  0.18942311737E-01 -0.12762006388E-01  0.22906581636E-01  0.00000000000E+00 0. -1.
     999901    1    3    3    0    0  0.12210424954E-02  0.37046799958E-02  0.13932107629E+00  0.89096889839E+00  0.88000000000E+00 0. -1.
        -11    1    4    4    0    0 -0.97401772154E-02 -0.16884034073E-01 -0.10374998586E+00  0.10556638834E+00  0.51100000000E-03 0. -1.
         11    1    4    4    0    0  0.67780140345E-02 -0.57629576593E-02 -0.22809084044E-01  0.24488131639E-01  0.51100000000E-03 0.  1.
</event>
<event>
 8    1  0.1093753E+005  0.1043930E+01  0.7957747E-01            NaN
         13   -1    0    0    0    0  0.00000000000E+00  0.00000000000E+00  0.74505805969E-08  0.10566000000E+00  0.10566000000E+00 0. -1.
     999900   -1    0    0    0    0 -0.00000000000E+00 -0.00000000000E+00 -0.74505805969E-08  0.93827000000E+00  0.93827000000E+00 0. -1.
     999902    2    1    2    0    0  0.11114887389E-01 -0.59449957588E-03 -0.20931716369E-01  0.10202228091E+01  0.10199473267E+01 0.  0.
     999903    2    3    3    0    0 -0.15733060343E-01  0.27015817130E-01 -0.12666470399E+00  0.13305731913E+00  0.26132726117E-01 0.  0.
         14    1    1    2    0    0 -0.11114887389E-01  0.59449957588E-03  0.20931716369E-01  0.23707190925E-01  0.00000000000E+00 0. -1.
     999901    1    3    3    0    0  0.26847947732E-01 -0.27610316705E-01  0.10573298762E+00  0.88716548995E+00  0.88000000000E+00 0.  1.
        -11    1    4    4    0    0 -0.22691512196E-01  0.21257666235E-01 -0.10668730067E+00  0.11112710895E+00  0.51100000000E-03 0.  1.
         11    1    4    4    0    0  0.69584518523E-02  0.57581508947E-02 -0.19977403317E-01  0.21930210172E-01  0.51100000000E-03 0. -1.
</event>
<event>
 8    1  0.1093753E+005  0.1043930E+01  0.7957747E-01            NaN
         13   -1    0    0    0    0  0.00000000000E+00  0.00000000000E+00  0.74505805969E-08  0.10566000000E+00  0.10566000000E+00 0.  1.
     999900   -1    0    0    0    0 -0.00000000000E+00 -0.00000000000E+00 -0.74505805969E-08  0.93827000000E+00  0.93827000000E+00 0. -1.
     999902    2    1    2    0    0  0.18115304307E-01 -0.45301890773E-02  0.13216783504E-01  0.10210527137E+01  0.10207963920E+01 0.  0.
     999903    2    3    3    0    0 -0.33125857447E-02 -0.41361294805E-01 -0.12129592035E+00  0.12981236881E+00  0.20416191390E-01 0.  0.
         14    1    1    2    0    0 -0.18115304307E-01  0.45301890773E-02 -0.13216783504E-01  0.22877286321E-01  0.00000000000E+00 0. -1.
     999901    1    3    3    0    0  0.21427890051E-01  0.36831105728E-01  0.13451270385E+00  0.89124034487E+00  0.88000000000E+00 0.  1.
        -11    1    4    4    0    0  0.26722128549E-02 -0.68348372572E-02 -0.48101685009E-01  0.48660959131E-01  0.51100000000E-03 0.  1.
         11    1    4    4    0    0 -0.59847985996E-02 -0.34526457548E-01 -0.73194235341E-01  0.81151409681E-01  0.51100000000E-03 0. -1.
</event>
<event>
 8    1  0.1093753E+005  0.1043930E+01  0.7957747E-01            NaN
         13   -1    0    0    0    0  0.00000000000E+00  0.00000000000E+00  0.74505805969E-08  0.10566000000E+00  0.10566000000E+00 0.  1.
     999900   -1    0    0    0    0 -0.00000000000E+00 -0.00000000000E+00 -0.74505805969E-08  0.93827000000E+00  0.93827000000E+00 0.  1.
     999902    2    1    2    0    0 -0.19132825979E-01 -0.99999789323E-02  0.11277466404E-01  0.10195733611E+01  0.10192823911E+01 0.  0.
     999903    2    3    3    0    0  0.12208567346E+00  0.28594471032E-01  0.98866551779E-02  0.12747800159E+00  0.20744625873E-01 0.  0.
         14    1    1    2    0    0  0.19132825979E-01  0.99999789323E-02 -0.11277466404E-01  0.24356638871E-01  0.00000000000E+00 0. -1.
     999901    1    3    3    0    0 -0.14121849943E+00 -0.38594449965E-01  0.13908112265E-02  0.89209535954E+00  0.88000000000E+00 0. -1.
        -11    1    4    4    0    0  0.12110332164E+00  0.26771137983E-01  0.74675920132E-02  0.12425270376E+00  0.51100000000E-03 0.  1.
         11    1    4    4    0    0  0.98235181814E-03  0.18233330490E-02  0.24190631647E-02  0.32252978308E-02  0.51100000000E-03 0. -1.
</event>
<event>
 8    1  0.1093753E+005  0.1043930E+01  0.7957747E-01            NaN
         13   -1    0    0    0    0  0.00000000000E+00  0.00000000000E+00  0.74505805969E-08  0.10566000000E+00  0.10566000000E+00 0. -1.
     999900   -1    0    0    0    0 -0.00000000000E+00 -0.00000000000E+00 -0.74505805969E-08  0.93827000000E+00  0.93827000000E+00 0. -1.
     999902    2    1    2    0    0  0.11955912348E-01 -0.37496033919E-02  0.20436765460E-01  0.10199578339E+01  0.10196760849E+01 0.  0.
     999903    2    3    3    0    0 -0.27271136479E-01 -0.12605430351E+00  0.17449745736E-03  0.13040302358E+00  0.19274744887E-01 0.  0.
         14    1    1    2    0    0 -0.11955912348E-01  0.37496033919E-02 -0.20436765460E-01  0.23972166113E-01  0.00000000000E+00 0.  1.
     999901    1    3    3    0    0  0.39227048828E-01  0.12230470012E+00  0.20262268003E-01  0.88955481030E+00  0.88000000000E+00 0. -1.
        -11    1    4    4    0    0 -0.49329147974E-02 -0.67708165230E-01 -0.14212193751E-02  0.67904420127E-01  0.51100000000E-03 0. -1.
         11    1    4    4    0    0 -0.22338221682E-01 -0.58346138285E-01  0.15957168325E-02  0.62498603456E-01  0.51100000000E-03 0.  1.
</event>
<event>
 8    1  0.1093753E+005  0.1043930E+01  0.7957747E-01            NaN
         13   -1    0    0    0    0  0.00000000000E+00  0.00000000000E+00  0.74505805969E-08  0.10566000000E+00  0.10566000000E+00 0. -1.
     999900   -1    0    0    0    0 -0.00000000000E+00 -0.00000000000E+00 -0.74505805969E-08  0.93827000000E+00  0.93827000000E+00 0. -1.
     999902    2    1    2    0    0 -0.20591946702E-01  0.21874740482E-02  0.10523357163E-01  0.10207016906E+01  0.10204373508E+01 0.  0.
     999903    2    3    3    0    0  0.61093382609E-01  0.95330126974E-01  0.61747993066E-01  0.13054888903E+00  0.20247549765E-01 0.  0.
         14    1    1    2    0    0  0.20591946702E-01 -0.21874740482E-02 -0.10523357163E-01  0.23228309402E-01  0.00000000000E+00 0.  1.
     999901    1    3    3    0    0 -0.81685329311E-01 -0.93142652926E-01 -0.51224635903E-01  0.89015280157E+00  0.88000000000E+00 0. -1.
        -11    1    4    4    0    0  0.42261902118E-01  0.54185462288E-01  0.28498295042E-01  0.74394533639E-01  0.51100000000E-03 0.  1.
         11    1    4    4    0    0  0.18831480491E-01  0.41144664686E-01  0.33249698024E-01  0.56154355390E-01  0.51100000000E-03 0. -1.
</event>
<event>
 8    1  0.1093753E+005  0.1043930E+01  0.7957747E-01            NaN
         13   -1    0    0    0    0  0.00000000000E+00  0.00000000000E+00  0.74505805969E-08  0.10566000000E+00  0.10566000000E+00 0. -1.
     999900   -1    0    0    0    0 -0.00000000000E+00 -0.00000000000E+00 -0.74505805969E-08  0.93827000000E+00  0.93827000000E+00 0. -1.
     999902    2    1    2    0    0 -0.21610624254E-01  0.80074157660E-02  0.67490735691E-02  0.10199156755E+01  0.10196329228E+01 0.  0.
     999903    2    3    3    0    0 -0.87769627674E-01 -0.15929195651E-01  0.96110658467E-01  0.13259641617E+00  0.19680043025E-01 0.  0.
         14    1    1    2    0    0  0.21610624254E-01 -0.80074157660E-02 -0.67490735691E-02  0.24014324515E-01  0.00000000000E+00 0. -1.
     999901    1    3    3    0    0  0.66159003420E-01  0.23936611417E-01 -0.89361584898E-01  0.88731925932E+00  0.88000000000E+00 0. -1.
        -11    1    4    4    0    0 -0.78342967562E-01 -0.19395511764E-01  0.80250534474E-01  0.11381658863E+00  0.51100000000E-03 0.  1.
         11    1    4    4    0    0 -0.94266601114E-02  0.34663161138E-02  0.15860123993E-01  0.18779827538E-01  0.51100000000E-03 0. -1.
</event>
<event>
 8    1  0.1093753E+005  0.1043930E+01  0.7957747E-01            NaN
         13   -1    0    0    0    0  0.00000000000E+00  0.00000000000E+00  0.74505805969E-08  0.10566000000E+00  0.10566000000E+00 0. -1.
     999900   -1    0    0    0    0 -0.00000000000E+00 -0.00000000000E+00 -0.74505805969E-08  0.93827000000E+00  0.93827000000E+00 0. -1.
     999902    2    1    2    0    0  0.16820665230E-01  0.10522817453E-01  0.12255177751E-01  0.10206093257E+01  0.10203428551E+01 0.  0.
     999903    2    3    3    0    0 -0.66934989548E-01  0.34045294926E-01  0.10579495792E+00  0.13138606518E+00  0.20744880588E-01 0.  0.
         14    1    1    2    0    0 -0.16820665230E-01 -0.10522817453E-01 -0.12255177751E-01  0.23320674253E-01  0.00000000000E+00 0.  1.
     999901    1    3    3    0    0  0.83755654778E-01 -0.23522477473E-01 -0.93539780169E-01  0.88922326056E+00  0.88000000000E+00 0. -1.
        -11    1    4    4    0    0 -0.35158236994E-01  0.27887324899E-01  0.69727524293E-01  0.82921609268E-01  0.51100000000E-03 0.  1.
         11    1    4    4    0    0 -0.31776752554E-01  0.61579700275E-02  0.36067433627E-01  0.48464455916E-01  0.51100000000E-03 0. -1.
</event>
<event>
 8    1  0.1093753E+005  0.1043930E+01  0.7957747E-01            NaN
         13   -1    0    0    0    0  0.00000000000E+00  0.00000000000E+00  0.74505805969E-08  0.10566000000E+00  0.10566000000E+00 0.  1.
     999900   -1    0    0    0    0 -0.00000000000E+00 -0.00000000000E+00 -0.74505805969E-08  0.93827000000E+00  0.93827000000E+00 0. -1.
     999902    2    1    2    0    0 -0.18456218665E-01  0.12758886260E-01  0.13371114650E-01  0.10178108903E+01  0.10174757002E+01 0.  0.
     999903    2    3    3    0    0  0.25331393033E-01 -0.70782468064E-01 -0.98712713669E-01  0.12570142536E+00  0.20119921437E-01 0.  0.
         14    1    1    2    0    0  0.18456218665E-01 -0.12758886260E-01 -0.13371114650E-01  0.26119109728E-01  0.00000000000E+00 0. -1.
     999901    1    3    3    0    0 -0.43787611698E-01  0.83541354324E-01  0.11208382832E+00  0.89210946492E+00  0.88000000000E+00 0.  1.
        -11    1    4    4    0    0  0.19366225672E-01 -0.56097551380E-01 -0.62606244791E-01  0.86265804207E-01  0.51100000000E-03 0. -1.
         11    1    4    4    0    0  0.59651673614E-02 -0.14684916684E-01 -0.36106468878E-01  0.39435621150E-01  0.51100000000E-03 0.  1.
</event>
<event>
 8    1  0.1093753E+005  0.1043930E+01  0.7957747E-01            NaN
         13   -1    0    0    0    0  0.00000000000E+00  0.00000000000E+00  0.74505805969E-08  0.10566000000E+00  0.10566000000E+00 0. -1.
     999900   -1    0    0    0    0 -0.00000000000E+00 -0.00000000000E+00 -0.74505805969E-08  0.93827000000E+00  0.93827000000E+00 0. -1.
     999902    2    1    2    0    0  0.19035079832E-01  0.43791504896E-03  0.14819427800E-01  0.10198023919E+01  0.10195169332E+01 0.  0.
     999903    2    3    3    0    0 -0.75342281865E-01  0.76506600785E-01 -0.66426013274E-01  0.12778537799E+00  0.19671507030E-01 0.  0.
         14    1    1    2    0    0 -0.19035079832E-01 -0.43791504896E-03 -0.14819427800E-01  0.24127608131E-01  0.00000000000E+00 0.  1.
     999901    1    3    3    0    0  0.94377361697E-01 -0.76068685736E-01  0.81245441074E-01  0.89201701388E+00  0.88000000000E+00 0. -1.
        -11    1    4    4    0    0 -0.33041371961E-01  0.47137310454E-01 -0.37754031978E-01  0.68842474894E-01  0.51100000000E-03 0. -1.
         11    1    4    4    0    0 -0.42300909903E-01  0.29369290331E-01 -0.28671981296E-01  0.58942903098E-01  0.51100000000E-03 0.  1.
</event>
<event>
 8    1  0.1093753E+005  0.1043930E+01  0.7957747E-01            NaN
         13   -1    0    0    0    0  0.00000000000E+00  0.00000000000E+00  0.74505805969E-08  0.10566000000E+00  0.10566000000E+00 0. -1.
     999900   -1    0    0    0    0 -0.00000000000E+00 -0.00000000000E+00 -0.74505805969E-08  0.93827000000E+00  0.93827000000E+00 0.  1.
     999902    2    1    2    0    0  0.38236831757E-02 -0.45885284003E-02  0.24874680142E-01  0.10183482710E+01  0.10180269035E+01 0.  0.
     999903    2    3    3    0    0  0.10456112451E+00  0.44619307314E-01  0.60987029742E-01  0.13050056731E+00  0.19674067365E-01 0.  0.
         14    1    1    2    0    0 -0.38236831757E-02  0.45885284003E-02 -0.24874680142E-01  0.25581728989E-01  0.00000000000E+00 0.  1.
     999901    1    3    3    0    0 -0.10073744133E+00 -0.49207835715E-01 -0.36112349600E-01  0.88784770371E+00  0.88000000000E+00 0.  1.
        -11    1    4    4    0    0  0.29215157060E-01  0.21795551883E-01  0.15842682021E-01  0.39746989554E-01  0.51100000000E-03 0.  1.
         11    1    4    4    0    0  0.75345967447E-01  0.22823755431E-01  0.45144347721E-01  0.90753577752E-01  0.51100000000E-03 0. -1.
</event>
<event>
 8    1  0.1093753E+005  0.1043930E+01  0.7957747E-01            NaN
         13   -1    0    0    0    0  0.00000000000E+00  0.00000000000E+00  0.74505805969E-08  0.10566000000E+00  0.10566000000E+00 0. -1.
     999900   -1    0    0    0    0 -0.00000000000E+00 -0.00000000000E+00 -0.74505805969E-08  0.93827000000E+00  0.93827000000E+00 0. -1.
     999902    2    1    2    0    0 -0.64991246482E-02 -0.22245494730E-01  0.46765182159E-02  0.10202874435E+01  0.10200134787E+01 0.  0.
     999903    2    3    3    0    0  0.43923420034E-01  0.11171970885E+00  0.40331390477E-01  0.12800924766E+00  0.18686526037E-01 0.  0.
         14    1    1    2    0    0  0.64991246482E-02  0.22245494730E-01 -0.46765182159E-02  0.23642556537E-01  0.00000000000E+00 0.  1.
     999901    1    3    3    0    0 -0.50422544682E-01 -0.13396520359E+00 -0.35654872261E-01  0.89227819580E+00  0.88000000000E+00 0. -1.
        -11    1    4    4    0    0  0.42918149625E-01  0.93131179159E-01  0.37421901430E-01  0.10916063359E+00  0.51100000000E-03 0. -1.
         11    1    4    4    0    0  0.10052704088E-02  0.18588529695E-01  0.29094890477E-02  0.18848614070E-01  0.51100000000E-03 0.  1.
</event>
<event>
 8    1  0.1093753E+005  0.1043930E+01  0.7957747E-01            NaN
         13   -1    0    0    0    0  0.00000000000E+00  0.00000000000E+00  0.74505805969E-08  0.10566000000E+00  0.10566000000E+00 0.  1.
     999900   -1    0    0    0    0 -0.00000000000E+00 -0.00000000000E+00 -0.74505805969E-08  0.93827000000E+00  0.93827000000E+00 0. -1.
     999902    2    1    2    0    0  0.22423526121E-01 -0.65632143924E-02  0.26879233839E-02  0.10204115979E+01  0.10201405363E+01 0.  0.
     999903    2    3    3    0    0  0.10436594006E+00  0.60398545059E-01  0.51609913119E-01  0.13272257714E+00  0.20284616373E-01 0.  0.
         14    1    1    2    0    0 -0.22423526121E-01  0.65632143924E-02 -0.26879233839E-02  0.23518402135E-01  0.00000000000E+00 0.  1.
     999901    1    3    3    0    0 -0.81942413940E-01 -0.66961759451E-01 -0.48921989735E-01  0.88768902072E+00  0.88000000000E+00 0.  1.
        -11    1    4    4    0    0  0.61613473026E-01  0.40103020495E-01  0.21374913706E-01  0.76561219740E-01  0.51100000000E-03 0.  1.
         11    1    4    4    0    0  0.42752467035E-01  0.20295524564E-01  0.30234999413E-01  0.56161357403E-01  0.51100000000E-03 0. -1.
</event>
<event>
 8    1  0.1093753E+005  0.1043930E+01  0.7957747E-01            NaN
         13   -1    0    0    0    0  0.00000000000E+00  0.00000000000E+00  0.74505805969E-08  0.10566000000E+00  0.10566000000E+00 0.  1.
     999900   -1    0    0    0    0 -0.00000000000E+00 -0.00000000000E+00 -0.74505805969E-08  0.93827000000E+00  0.93827000000E+00 0.  1.
     999902    2    1    2    0    0 -0.60566391307E-03 -0.21582529103E-01  0.93910937948E-02  0.10203850423E+01  0.10201133611E+01 0.  0.
     999903    2    3    3    0    0  0.74095171696E-01 -0.96566614664E-01  0.50017383673E-01  0.13311207225E+00  0.20046934221E-01 0.  0.
         14    1    1    2    0    0  0.60566391307E-03  0.21582529103E-01 -0.93910937948E-02  0.23544957717E-01  0.00000000000E+00 0. -1.
     999901    1    3    3    0    0 -0.74700835609E-01  0.74984085562E-01 -0.40626289879E-01  0.88727297004E+00  0.88000000000E+00 0. -1.
        -11    1    4    4    0    0  0.77165240711E-02 -0.60292593804E-02  0.97929077897E-02  0.13858530817E-01  0.51100000000E-03 0.  1.
         11    1    4    4    0    0  0.66378647625E-01 -0.90537355284E-01  0.40224475884E-01  0.11925354143E+00  0.51100000000E-03 0. -1.
</event>
<event>
 8    1  0.1322535E+005  0.1043930E+01  0.7957747E-01            NaN
         13   -1    0    0    0    0  0.00000000000E+00  0.00000000000E+00  0.74505805969E-08  0.10566000000E+00  0.10566000000E+00 0.  1.
     999900   -1    0    0    0    0 -0.00000000000E+00 -0.00000000000E+00 -0.74505805969E-08  0.93827000000E+00  0.93827000000E+00 0. -1.
     999902    2    1    2    0    0 -0.18026333990E-01  0.14105223038E-01 -0.44580465771E-02  0.10206109045E+01  0.10203444704E+01 0.  0.
     999903    2    3    3    0    0  0.77285858654E-01 -0.37287328018E-01  0.93674196474E-01  0.12855959127E+00  0.19729790767E-01 0.  0.
         14    1    1    2    0    0  0.18026333990E-01 -0.14105223038E-01  0.44580465771E-02  0.23319095466E-01  0.00000000000E+00 0.  1.
     999901    1    3    3    0    0 -0.95312192644E-01  0.51392551056E-01 -0.98132243051E-01  0.89205131326E+00  0.88000000000E+00 0. -1.
        -11    1    4    4    0    0  0.29788297962E-01 -0.40409526563E-02  0.31359522715E-01  0.43443673645E-01  0.51100000000E-03 0. -1.
         11    1    4    4    0    0  0.47497560692E-01 -0.33246375362E-01  0.62314673759E-01  0.85115917624E-01  0.51100000000E-03 0.  1.
</event>
<event>
 8    1  0.1093753E+005  0.1043930E+01  0.7957747E-01            NaN
         13   -1    0    0    0    0  0.00000000000E+00  0.00000000000E+00  0.74505805969E-08  0.10566000000E+00  0.10566000000E+00 0. -1.
     999900   -1    0    0    0    0 -0.00000000000E+00 -0.00000000000E+00 -0.74505805969E-08  0.93827000000E+00  0.93827000000E+00 0.  1.
     999902    2    1    2    0    0  0.23015645698E-01  0.59475258267E-02  0.70315764096E-02  0.10191401618E+01  0.10188386199E+01 0.  0.
     999903    2    3    3    0    0 -0.71988525541E-01  0.83368921521E-01  0.62796954587E-01  0.12889882237E+00  0.23210429053E-01 0.  0.
         14    1    1    2    0    0 -0.23015645698E-01 -0.59475258267E-02 -0.70315764096E-02  0.24789838184E-01  0.00000000000E+00 0. -1.
     999901    1    3    3    0    0  0.95004171239E-01 -0.77421395694E-01 -0.55765378177E-01  0.89024133945E+00  0.88000000000E+00 0. -1.
        -11    1    4    4    0    0 -0.26000546239E-01  0.45672446694E-01  0.35800386931E-01  0.63591898990E-01  0.51100000000E-03 0. -1.
         11    1    4    4    0    0 -0.45987979301E-01  0.37696474827E-01  0.26996567656E-01  0.65306923376E-01  0.51100000000E-03 0.  1.
</event>
<event>
 8    1  0.1102254E+005  0.1043930E+01  0.7957747E-01            NaN
         13   -1    0    0    0    0  0.00000000000E+00  0.00000000000E+00  0.74505805969E-08  0.10566000000E+00  0.10566000000E+00 0. -1.
     999900   -1    0    0    0    0 -0.00000000000E+00 -0.00000000000E+00 -0.74505805969E-08  0.93827000000E+00  0.93827000000E+00 0.  1.
     999902    2    1    2    0    0  0.20345113663E-01 -0.12821789389E-01  0.64070933929E-03  0.10198731415E+01  0.10195893743E+01 0.  0.
     999903    2    3    3    0    0 -0.23373861099E-01  0.97389008027E-01  0.78122457529E-01  0.12854761738E+00  0.19758929538E-01 0.  0.
         14    1    1    2    0    0 -0.20345113663E-01  0.12821789389E-01 -0.64070933929E-03  0.24056858514E-01  0.00000000000E+00 0. -1.
     999901    1    3    3    0    0  0.43718974762E-01 -0.11021079742E+00 -0.77481748190E-01  0.89132552411E+00  0.88000000000E+00 0.  1.
        -11    1    4    4    0    0 -0.11086423300E-01  0.46310696895E-01  0.49624940910E-01  0.68778523608E-01  0.51100000000E-03 0. -1.
         11    1    4    4    0    0 -0.12287437799E-01  0.51078311132E-01  0.28497516620E-01  0.59769093771E-01  0.51100000000E-03 0.  1.
</event>
<event>
 8    1  0.1093753E+005  0.1043930E+01  0.7957747E-01            NaN
         13   -1    0    0    0    0  0.00000000000E+00  0.00000000000E+00  0.74505805969E-08  0.10566000000E+00  0.10566000000E+00 0.  1.
     999900   -1    0    0    0    0 -0.00000000000E+00 -0.00000000000E+00 -0.74505805969E-08  0.93827000000E+00  0.93827000000E+00 0. -1.
     999902    2    1    2    0    0 -0.25827114486E-02  0.28755018811E-01 -0.24543454535E-02  0.10149550916E+01  0.10145414199E+01 0.  0.
     999903    2    3    3    0    0  0.10318565245E+00  0.55696234850E-01 -0.45100566547E-01  0.12718739896E+00  0.19829874018E-01 0.  0.
         14    1    1    2    0    0  0.25827114486E-02 -0.28755018811E-01  0.24543454535E-02  0.28974908401E-01  0.00000000000E+00 0. -1.
     999901    1    3    3    0    0 -0.10576836390E+00 -0.26941216039E-01  0.42646221094E-01  0.88776769264E+00  0.88000000000E+00 0.  1.
        -11    1    4    4    0    0  0.55402622943E-01  0.25532552762E-01 -0.13643071035E-01  0.62512049940E-01  0.51100000000E-03 0.  1.
         11    1    4    4    0    0  0.47783029504E-01  0.30163682088E-01 -0.31457495512E-01  0.64675349018E-01  0.51100000000E-03 0. -1.
</event>
<event>
 8    1  0.1093753E+005  0.1043930E+01  0.7957747E-01            NaN
         13   -1    0    0    0    0  0.00000000000E+00  0.00000000000E+00  0.74505805969E-08  0.10566000000E+00  0.10566000000E+00 0.  1.
     999900   -1    0    0    0    0 -0.00000000000E+00 -0.00000000000E+00 -0.74505805969E-08  0.93827000000E+00  0.93827000000E+00 0. -1.
     999902    2    1    2    0    0 -0.39202657779E-02  0.36616875582E-02 -0.23078849379E-01  0.10202359136E+01  0.10199607393E+01 0.  0.
     999903    2    3    3    0    0 -0.12503643525E+00 -0.11984984217E-01  0.30159924474E-01  0.13020877255E+00  0.16338709184E-01 0.  0.
         14    1    1    2    0    0  0.39202657779E-02 -0.36616875582E-02  0.23078849379E-01  0.23694086355E-01  0.00000000000E+00 0.  1.
     999901    1    3    3    0    0  0.12111616947E+00  0.15646671775E-01 -0.53238773853E-01  0.89002714110E+00  0.88000000000E+00 0.  1.
        -11    1    4    4    0    0 -0.75726720310E-01 -0.13147639886E-01  0.12816722917E-01  0.77922564837E-01  0.51100000000E-03 0. -1.
         11    1    4    4    0    0 -0.49309714940E-01  0.11626556686E-02  0.17343201557E-01  0.52286207712E-01  0.51100000000E-03 0.  1.
</event>
<event>
 8    1  0.1093753E+005  0.1043930E+01  0.7957747E-01            NaN
         13   -1    0    0    0    0  0.00000000000E+00  0.00000000000E+00  0.74505805969E-08  0.10566000000E+00  0.10566000000E+00 0. -1.
     999900   -1    0    0    0    0 -0.00000000000E+00 -0.00000000000E+00 -0.74505805969E-08  0.93827000000E+00  0.93827000000E+00 0. -1.
     999902    2    1    2    0    0  0.17035699456E-01  0.15447080588E-01 -0.27092794577E-02  0.10207747080E+01  0.10205120464E+01 0.  0.
     999903    2    3    3    0    0 -0.79292721666E-01 -0.70460883917E-01  0.69700110595E-01  0.12841689695E+00  0.19512102268E-01 0.  0.
         14    1    1    2    0    0 -0.17035699456E-01 -0.15447080588E-01  0.27092794577E-02  0.23155292048E-01  0.00000000000E+00 0.  1.
     999901    1    3    3    0    0  0.96328421122E-01  0.85907964504E-01 -0.72409390053E-01  0.89235781100E+00  0.88000000000E+00 0. -1.
        -11    1    4    4    0    0 -0.68074488819E-01 -0.50012555156E-01  0.52929552157E-01  0.99685456881E-01  0.51100000000E-03 0.  1.
         11    1    4    4    0    0 -0.11218232847E-01 -0.20448328761E-01  0.16770558439E-01  0.28731440073E-01  0.51100000000E-03 0. -1.
</event>
<event>
 8    1  0.1093753E+005  0.1043930E+01  0.7957747E-01            NaN
         13   -1    0    0    0    0  0.00000000000E+00  0.00000000000E+00  0.74505805969E-08  0.10566000000E+00  0.10566000000E+00 0. -1.
     999900   -1    0    0    0    0 -0.00000000000E+00 -0.00000000000E+00 -0.74505805969E-08  0.93827000000E+00  0.93827000000E+00 0. -1.
     999902    2    1    2    0    0 -0.15456003306E-01  0.16650441245E-01 -0.63132150612E-02  0.10203507312E+01  0.10200782484E+01 0.  0.
     999903    2    3    3    0    0  0.35981650517E-01 -0.86351052630E-03 -0.12424012398E+00  0.13082314503E+00  0.19587292922E-01 0.  0.
         14    1    1    2    0    0  0.15456003306E-01 -0.16650441245E-01  0.63132150612E-02  0.23579268782E-01  0.00000000000E+00 0.  1.
     999901    1    3    3    0    0 -0.51437653823E-01  0.17513951772E-01  0.11792690892E+00  0.88952758619E+00  0.88000000000E+00 0.  1.
        -11    1    4    4    0    0  0.86099786106E-02 -0.84274291114E-02 -0.28168886575E-01  0.30641484706E-01  0.51100000000E-03 0.  1.
         11    1    4    4    0    0  0.27371671907E-01  0.75639185851E-02 -0.96071237410E-01  0.10018166033E+00  0.51100000000E-03 0. -1.
</event>
<event>
 8    1  0.1093753E+005  0.1043930E+01  0.7957747E-01            NaN
         13   -1    0    0    0    0  0.00000000000E+00  0.00000000000E+00  0.74505805969E-08  0.10566000000E+00  0.10566000000E+00 0. -1.
     999900   -1    0    0    0    0 -0.00000000000E+00 -0.00000000000E+00 -0.74505805969E-08  0.93827000000E+00  0.93827000000E+00 0.  1.
     999902    2    1    2    0    0 -0.11452222982E-01  0.13708864671E-01  0.16172670733E-01  0.10198334928E+01  0.10195487783E+01 0.  0.
     999903    2    3    3    0    0  0.65861259918E-02 -0.46688845592E-01 -0.11683047472E+00  0.12760980886E+00  0.20289853014E-01 0.  0.
         14    1    1    2    0    0  0.11452222982E-01 -0.13708864671E-01 -0.16172670733E-01  0.24096507225E-01  0.00000000000E+00 0. -1.
     999901    1    3    3    0    0 -0.18038348974E-01  0.60397710264E-01  0.13300314545E+00  0.89222368392E+00  0.88000000000E+00 0.  1.
        -11    1    4    4    0    0 -0.60300383473E-02 -0.28552655945E-01 -0.63807373556E-01  0.70165928805E-01  0.51100000000E-03 0. -1.
         11    1    4    4    0    0  0.12616164339E-01 -0.18136189647E-01 -0.53023101165E-01  0.57443880055E-01  0.51100000000E-03 0.  1.
</event>
<event>
 8    1  0.1093753E+005  0.1043930E+01  0.7957747E-01            NaN
         13   -1    0    0    0    0  0.00000000000E+00  0.00000000000E+00  0.74505805969E-08  0.10566000000E+00  0.10566000000E+00 0. -1.
     999900   -1    0    0    0    0 -0.00000000000E+00 -0.00000000000E+00 -0.74505805969E-08  0.93827000000E+00  0.93827000000E+00 0. -1.
     999902    2    1    2    0    0  0.22482065467E-01 -0.13229235066E-02  0.72171621684E-02  0.10202808811E+01  0.10200067625E+01 0.  0.
     999903    2    3    3    0    0 -0.52207599273E-01  0.98791447806E-03  0.11760892677E+00  0.13024142824E+00  0.20108718897E-01 0.  0.
         14    1    1    2    0    0 -0.22482065467E-01  0.13229235066E-02 -0.72171621684E-02  0.23649118885E-01  0.00000000000E+00 0. -1.
     999901    1    3    3    0    0  0.74689664740E-01 -0.23108379846E-02 -0.11039176460E+00  0.89003945288E+00  0.88000000000E+00 0. -1.
        -11    1    4    4    0    0 -0.26728088106E-01 -0.42708529069E-02  0.80406716393E-01  0.84841805972E-01  0.51100000000E-03 0. -1.
         11    1    4    4    0    0 -0.25479511167E-01  0.52587673849E-02  0.37202210377E-01  0.45399622264E-01  0.51100000000E-03 0.  1.
</event>
<event>
 8    1  0.1093753E+005  0.1043930E+01  0.7957747E-01            NaN
         13   -1    0    0    0    0  0.00000000000E+00  0.00000000000E+00  0.74505805969E-08  0.10566000000E+00  0.10566000000E+00 0.  1.
     999900   -1    0    0    0    0 -0.00000000000E+00 -0.00000000000E+00 -0.74505805969E-08  0.93827000000E+00  0.93827000000E+00 0.  1.
     999902    2    1    2    0    0  0.14495587207E-01  0.95063654199E-02  0.16295644250E-01  0.10201383827E+01  0.10198609115E+01 0.  0.
     999903    2    3    3    0    0  0.10063423809E+00  0.53409458104E-02 -0.80268833894E-01  0.13066555213E+00  0.21785895419E-01 0.  0.
         14    1    1    2    0    0 -0.14495587207E-01 -0.95063654199E-02 -0.16295644250E-01  0.23791617295E-01  0.00000000000E+00 0. -1.
     999901    1    3    3    0    0 -0.86138650886E-01  0.41654196094E-02  0.96564478144E-01  0.88947283058E+00  0.88000000000E+00 0. -1.
        -11    1    4    4    0    0  0.36347699155E-01 -0.54198147359E-02 -0.19767959195E-01  0.41732037542E-01  0.51100000000E-03 0. -1.
         11    1    4    4    0    0  0.64286538938E-01  0.10760760546E-01 -0.60500874699E-01  0.88933514586E-01  0.51100000000E-03 0.  1.
</event>
<event>
 7    1  0.1093753E+005  0.1043930E+01  0.7957747E-01            NaN
         13   -1    0    0    0    0  0.00000000000E+00  0.00000000000E+00  0.74505805969E-08  0.10566000000E+00  0.10566000000E+00 0. -1.
     999900   -1    0    0    0    0 -0.00000000000E+00 -0.00000000000E+00 -0.74505805969E-08  0.93827000000E+00  0.93827000000E+00 0.  1.
     999903    2    1    2    0    0 -0.79021322609E-01 -0.60736100726E-01 -0.56763817763E-01  0.11651618957E+00  0.20509706629E-01 0.  0.
         14    1    1    2    0    0 -0.14827948526E-01 -0.11681742042E-01  0.34335527681E-01  0.39182389102E-01  0.00000000000E+00 0. -1.
     999901    1    1    2    0    0  0.93849271135E-01  0.72417842768E-01  0.22428290082E-01  0.88823142133E+00  0.88000000000E+00 0. -1.
        -11    1    3    3    0    0 -0.31729580386E-01 -0.32189107887E-01 -0.16343000261E-01  0.48065161152E-01  0.51100000000E-03 0. -1.
         11    1    3    3    0    0 -0.47291742222E-01 -0.28546992839E-01 -0.40420817501E-01  0.68451028415E-01  0.51100000000E-03 0.  1.
</event>
<event>
 8    1  0.1093753E+005  0.1043930E+01  0.7957747E-01            NaN
         13   -1    0    0    0    0  0.00000000000E+00  0.00000000000E+00  0.74505805969E-08  0.10566000000E+00  0.10566000000E+00 0.  1.
     999900   -1    0    0    0    0 -0.00000000000E+00 -0.00000000000E+00 -0.74505805969E-08  0.93827000000E+00  0.93827000000E+00 0.  1.
     999902    2    1    2    0    0 -0.74732067830E-02 -0.16888270182E-01 -0.11804418924E-01  0.10220118159E+01  0.10217767589E+01 0.  0.
     999903    2    3    3    0    0  0.64725584571E-01  0.25454242571E-01  0.10789915122E+00  0.12997229961E+00  0.20328602285E-01 0.  0.
         14    1    1    2    0    0  0.74732067830E-02  0.16888270182E-01  0.11804418924E-01  0.21918184129E-01  0.00000000000E+00 0. -1.
     999901    1    3    3    0    0 -0.72198791354E-01 -0.42342512753E-01 -0.11970357014E+00  0.89203951626E+00  0.88000000000E+00 0.  1.
        -11    1    4    4    0    0  0.55152663182E-01  0.24088145119E-01  0.10255768533E+00  0.11891339257E+00  0.51100000000E-03 0.  1.
         11    1    4    4    0    0  0.95729213890E-02  0.13660974518E-02  0.53414658839E-02  0.11058907042E-01  0.51100000000E-03 0. -1.
</event>
<event>
 8    1  0.1093753E+005  0.1043930E+01  0.7957747E-01            NaN
         13   -1    0    0    0    0  0.00000000000E+00  0.00000000000E+00  0.74505805969E-08  0.10566000000E+00  0.10566000000E+00 0.  1.
     999900   -1    0    0    0    0 -0.00000000000E+00 -0.00000000000E+00 -0.74505805969E-08  0.93827000000E+00  0.93827000000E+00 0. -1.
     999902    2    1    2    0    0  0.22712986348E-01  0.10355242376E-01  0.36076916069E-02  0.10187084570E+01  0.10183961872E+01 0.  0.
     999903    2    3    3    0    0 -0.35786549446E-01  0.11031871888E+00  0.54677648476E-01  0.12965107255E+00  0.19205689596E-01 0.  0.
         14    1    1    2    0    0 -0.22712986348E-01 -0.10355242376E-01 -0.36076916069E-02  0.25221543018E-01  0.00000000000E+00 0.  1.
     999901    1    3    3    0    0  0.58499535794E-01 -0.99963476505E-01 -0.51069956869E-01  0.88905738443E+00  0.88000000000E+00 0. -1.
        -11    1    4    4    0    0 -0.12761337868E-01  0.60472100724E-01  0.36659919783E-01  0.71860542369E-01  0.51100000000E-03 0.  1.
         11    1    4    4    0    0 -0.23025211579E-01  0.49846618157E-01  0.18017728694E-01  0.57790530178E-01  0.51100000000E-03 0. -1.
</event>
<event>
 8    1  0.1093753E+005  0.1043930E+01  0.7957747E-01            NaN
         13   -1    0    0    0    0  0.00000000000E+00  0.00000000000E+00  0.74505805969E-08  0.10566000000E+00  0.10566000000E+00 0.  1.
     999900   -1    0    0    0    0 -0.00000000000E+00 -0.00000000000E+00 -0.74505805969E-08  0.93827000000E+00  0.93827000000E+00 0. -1.
     999902    2    1    2    0    0 -0.19838614122E-02 -0.23122716621E-01  0.49423167530E-02  0.10202019106E+01  0.10199259366E+01 0.  0.
     999903    2    3    3    0    0  0.11974905813E+00 -0.40099189440E-01 -0.32117537284E-01  0.13088726603E+00  0.12335245916E-01 0.  0.
         14    1    1    2    0    0  0.19838614122E-02  0.23122716621E-01 -0.49423167530E-02  0.23728089365E-01  0.00000000000E+00 0. -1.
     999901    1    3    3    0    0 -0.12173291954E+00  0.16976472819E-01  0.37059854037E-01  0.88931464461E+00  0.88000000000E+00 0.  1.
        -11    1    4    4    0    0  0.10508627025E+00 -0.30811143152E-01 -0.27161272026E-01  0.11282928058E+00  0.51100000000E-03 0.  1.
         11    1    4    4    0    0  0.14662787873E-01 -0.92880462884E-02 -0.49562652571E-02  0.18057985445E-01  0.51100000000E-03 0. -1.
</event>
<event>
 8    1  0.1093753E+005  0.1043930E+01  0.7957747E-01            NaN
         13   -1    0    0    0    0  0.00000000000E+00  0.00000000000E+00  0.74505805969E-08  0.10566000000E+00  0.10566000000E+00 0. -1.
     999900   -1    0    0    0    0 -0.00000000000E+00 -0.00000000000E+00 -0.74505805969E-08  0.93827000000E+00  0.93827000000E+00 0.  1.
     999902    2    1    2    0    0  0.21238937598E-01 -0.26591700121E-03  0.11747967722E-01  0.10196570124E+01  0.10193680616E+01 0.  0.
     999903    2    3    3    0    0 -0.12291173074E+00  0.24187766578E-01  0.13571646017E-01  0.12759158674E+00  0.20076897843E-01 0.  0.
         14    1    1    2    0    0 -0.21238937598E-01  0.26591700121E-03 -0.11747967722E-01  0.24272987615E-01  0.00000000000E+00 0.  1.
     999901    1    3    3    0    0  0.14415066834E+00 -0.24453683579E-01 -0.18236782952E-02  0.89206542564E+00  0.88000000000E+00 0.  1.
        -11    1    4    4    0    0 -0.32307839062E-01  0.11449440916E-01 -0.36991932463E-02  0.34479433200E-01  0.51100000000E-03 0. -1.
         11    1    4    4    0    0 -0.90603891677E-01  0.12738325661E-01  0.17270839263E-01  0.93112153544E-01  0.51100000000E-03 0.  1.
</event>
<event>
 8    1  0.1093753E+005  0.1043930E+01  0.7957747E-01            NaN
         13   -1    0    0    0    0  0.00000000000E+00  0.00000000000E+00  0.74505805969E-08  0.10566000000E+00  0.10566000000E+00 0. -1.
     999900   -1    0    0    0    0 -0.00000000000E+00 -0.00000000000E+00 -0.74505805969E-08  0.93827000000E+00  0.93827000000E+00 0.  1.
     999902    2    1    2    0    0  0.95323796110E-02 -0.21247537879E-01  0.23663337108E-02  0.10205222307E+01  0.10202537428E+01 0.  0.
     999903    2    3    3    0    0 -0.37906682858E-01  0.26668454322E-01  0.12004522799E+00  0.13013201902E+00  0.19374275472E-01 0.  0.
         14    1    1    2    0    0 -0.95323796110E-02  0.21247537879E-01 -0.23663337108E-02  0.23407769270E-01  0.00000000000E+00 0.  1.
     999901    1    3    3    0    0  0.47439062469E-01 -0.47915992202E-01 -0.11767889427E+00  0.89039021171E+00  0.88000000000E+00 0.  1.
        -11    1    4    4    0    0 -0.37499381863E-01  0.19861958546E-01  0.92821389371E-01  0.10206259101E+00  0.51100000000E-03 0.  1.
         11    1    4    4    0    0 -0.40730099460E-03  0.68064957763E-02  0.27223838615E-01  0.28069428010E-01  0.51100000000E-03 0. -1.
</event>
<event>
 8    1  0.1093753E+005  0.1043930E+01  0.7957747E-01            NaN
         13   -1    0    0    0    0  0.00000000000E+00  0.00000000000E+00  0.74505805969E-08  0.10566000000E+00  0.10566000000E+00 0.  1.
     999900   -1    0    0    0    0 -0.00000000000E+00 -0.00000000000E+00 -0.74505805969E-08  0.93827000000E+00  0.93827000000E+00 0.  1.
     999902    2    1    2    0    0  0.19237117536E-01 -0.11135546881E-01  0.39860257378E-02  0.10213478058E+01  0.10210981269E+01 0.  0.
     999903    2    3    3    0    0  0.78371829076E-01  0.94915729180E-01  0.43825178969E-01  0.13211727019E+00  0.19575176437E-01 0.  0.
         14    1    1    2    0    0 -0.19237117536E-01  0.11135546881E-01 -0.39860257378E-02  0.22582194238E-01  0.00000000000E+00 0. -1.
     999901    1    3    3    0    0 -0.59134711540E-01 -0.10605127606E+00 -0.39839153231E-01  0.88923053557E+00  0.88000000000E+00 0. -1.
        -11    1    4    4    0    0  0.27184682953E-01  0.37215474951E-01  0.26121805782E-01  0.52977433134E-01  0.51100000000E-03 0.  1.
         11    1    4    4    0    0  0.51187146123E-01  0.57700254228E-01  0.17703373187E-01  0.79139837057E-01  0.51100000000E-03 0. -1.
</event>
<event>
 8    1  0.1093753E+005  0.1043930E+01  0.7957747E-01            NaN
         13   -1    0    0    0    0  0.00000000000E+00  0.00000000000E+00  0.74505805969E-08  0.10566000000E+00  0.10566000000E+00 0.  1.
     999900   -1    0    0    0    0 -0.00000000000E+00 -0.00000000000E+00 -0.74505805969E-08  0.93827000000E+00  0.93827000000E+00 0. -1.
     999902    2    1    2    0    0 -0.18644699568E-01 -0.15435988942E-01  0.23320613572E-02  0.10196126587E+01  0.10193226382E+01 0.  0.
     999903    2    3    3    0    0 -0.12696887525E+00  0.19938720188E-01  0.23341487005E-01  0.13201652700E+00  0.19102108261E-01 0.  0.
         14    1    1    2    0    0  0.18644699568E-01  0.15435988942E-01 -0.23320613572E-02  0.24317341277E-01  0.00000000000E+00 0. -1.
     999901    1    3    3    0    0  0.10832417568E+00 -0.35374709130E-01 -0.21009425647E-01  0.88759613172E+00  0.88000000000E+00 0. -1.
        -11    1    4    4    0    0 -0.53497911331E-01  0.89593100765E-02  0.19447221625E-01  0.57625960328E-01  0.51100000000E-03 0.  1.
         11    1    4    4    0    0 -0.73470963921E-01  0.10979410111E-01  0.38942653801E-02  0.74390566672E-01  0.51100000000E-03 0. -1.
</event>
<event>
 8    1  0.1093753E+005  0.1043930E+01  0.7957747E-01            NaN
         13   -1    0    0    0    0  0.00000000000E+00  0.00000000000E+00  0.74505805969E-08  0.10566000000E+00  0.10566000000E+00 0. -1.
     999900   -1    0    0    0    0 -0.00000000000E+00 -0.00000000000E+00 -0.74505805969E-08  0.93827000000E+00  0.93827000000E+00 0. -1.
     999902    2    1    2    0    0 -0.18306314610E-01  0.13162323810E-01 -0.93669417455E-02  0.10195146868E+01  0.10192222962E+01 0.  0.
     999903    2    3    3    0    0 -0.98550411596E-01  0.85544460506E-01  0.14574054980E-01  0.13258094621E+00  0.18310266787E-01 0.  0.
         14    1    1    2    0    0  0.18306314610E-01 -0.13162323810E-01  0.93669417455E-02  0.24415313235E-01  0.00000000000E+00 0. -1.
     999901    1    3    3    0    0  0.80244096986E-01 -0.72382136696E-01 -0.23940996725E-01  0.88693374056E+00  0.88000000000E+00 0. -1.
        -11    1    4    4    0    0 -0.64669181326E-01  0.66695351747E-01  0.79067437530E-02  0.93237067070E-01  0.51100000000E-03 0.  1.
         11    1    4    4    0    0 -0.33881230271E-01  0.18849108759E-01  0.66673112267E-02  0.39343879138E-01  0.51100000000E-03 0. -1.
</event>
<event>
 8    1  0.1093753E+005  0.1043930E+01  0.7957747E-01            NaN
         13   -1    0    0    0    0  0.00000000000E+00  0.00000000000E+00  0.74505805969E-08  0.10566000000E+00  0.10566000000E+00 0. -1.
     999900   -1    0    0    0    0 -0.00000000000E+00 -0.00000000000E+00 -0.74505805969E-08  0.93827000000E+00  0.93827000000E+00 0.  1.
     999902    2    1    2    0    0  0.79389222158E-02  0.11932589172E-01  0.18776852845E-01  0.10203083283E+01  0.10200348531E+01 0.  0.
     999903    2    3    3    0    0  0.29480134726E-01  0.12246915774E+00 -0.32121427177E-01  0.13167286215E+00  0.20932835454E-01 0.  0.
         14    1    1    2    0    0 -0.79389222158E-02 -0.11932589172E-01 -0.18776852845E-01  0.23621671682E-01  0.00000000000E+00 0.  1.
     999901    1    3    3    0    0 -0.21541212510E-01 -0.11053656857E+00  0.50898280021E-01  0.88863546617E+00  0.88000000000E+00 0.  1.
        -11    1    4    4    0    0  0.15976660510E-02  0.38607800095E-01 -0.36167944720E-02  0.38813104594E-01  0.51100000000E-03 0. -1.
         11    1    4    4    0    0  0.27882468675E-01  0.83861357649E-01 -0.28504632705E-01  0.92859757552E-01  0.51100000000E-03 0.  1.
</event>
<event>
 8    1  0.1093753E+005  0.1043930E+01  0.7957747E-01            NaN
         13   -1    0    0    0    0  0.00000000000E+00  0.00000000000E+00  0.74505805969E-08  0.10566000000E+00  0.10566000000E+00 0.  1.
     999900   -1    0    0    0    0 -0.00000000000E+00 -0.00000000000E+00 -0.74505805969E-08  0.93827000000E+00  0.93827000000E+00 0. -1.
     999902    2    1    2    0    0  0.23908094398E-02 -0.19951331605E-01  0.12528140093E-01  0.10202503485E+01  0.10199755133E+01 0.  0.
     999903    2    3    3    0    0  0.65964660218E-01 -0.78920290102E-01 -0.79009623388E-01  0.13126320868E+00  0.20193087346E-01 0.  0.
         14    1    1    2    0    0 -0.23908094398E-02  0.19951331605E-01 -0.12528140093E-01  0.23679651534E-01  0.00000000000E+00 0. -1.
     999901    1    3    3    0    0 -0.63573850778E-01  0.58968958497E-01  0.91537763481E-01  0.88898713979E+00  0.88000000000E+00 0.  1.
        -11    1    4    4    0    0  0.26488038713E-01 -0.37602095578E-01 -0.23747091135E-01  0.51766004724E-01  0.51100000000E-03 0.  1.
         11    1    4    4    0    0  0.39476621504E-01 -0.41318194524E-01 -0.55262532253E-01  0.79497203952E-01  0.51100000000E-03 0. -1.
</event>
<event>
 8    1  0.1093753E+005  0.1043930E+01  0.7957747E-01            NaN
         13   -1    0    0    0    0  0.00000000000E+00  0.00000000000E+00  0.74505805969E-08  0.10566000000E+00  0.10566000000E+00 0.  1.
     999900   -1    0    0    0    0 -0.00000000000E+00 -0.00000000000E+00 -0.74505805969E-08  0.93827000000E+00  0.93827000000E+00 0.  1.
     999902    2    1    2    0    0 -0.88541162034E-02  0.15784742223E-01  0.16809067793E-01  0.10192298336E+01  0.10189304959E+01 0.  0.
     999903    2    3    3    0    0 -0.93208349671E-01  0.41617096049E-01 -0.77778484435E-01  0.12977508362E+00  0.19295091465E-01 0.  0.
         14    1    1    2    0    0  0.88541162034E-02 -0.15784742223E-01 -0.16809067793E-01  0.24700166414E-01  0.00000000000E+00 0. -1.
     999901    1    3    3    0    0  0.84354233468E-01 -0.25832353825E-01  0.94587552228E-01  0.88945474997E+00  0.88000000000E+00 0. -1.
        -11    1    4    4    0    0 -0.82794132661E-01  0.42052838502E-01 -0.65383315433E-01  0.11357177769E+00  0.51100000000E-03 0. -1.
         11    1    4    4    0    0 -0.10414217010E-01 -0.43574245347E-03 -0.12395169002E-01  0.16203305929E-01  0.51100000000E-03 0.  1.
</event>
<event>
 8    1  0.1093753E+005  0.1043930E+01  0.7957747E-01            NaN
         13   -1    0    0    0    0  0.00000000000E+00  0.00000000000E+00  0.74505805969E-08  0.10566000000E+00  0.10566000000E+00 0.  1.
     999900   -1    0    0    0    0 -0.00000000000E+00 -0.00000000000E+00 -0.74505805969E-08  0.93827000000E+00  0.93827000000E+00 0.  1.
     999902    2    1    2    0    0 -0.36105563402E-02  0.11284553345E-01  0.19817672912E-01  0.10208406643E+01  0.10205795141E+01 0.  0.
     999903    2    3    3    0    0  0.60110015912E-01  0.85238304880E-01  0.80141504296E-01  0.13339013991E+00  0.22169485375E-01 0.  0.
         14    1    1    2    0    0  0.36105563402E-02 -0.11284553345E-01 -0.19817672912E-01  0.23089335654E-01  0.00000000000E+00 0. -1.
     999901    1    3    3    0    0 -0.63720572252E-01 -0.73953751535E-01 -0.60323831384E-01  0.88745052444E+00  0.88000000000E+00 0.  1.
        -11    1    4    4    0    0  0.49488327779E-02  0.22412716959E-01  0.15356318500E-01  0.27620616688E-01  0.51100000000E-03 0.  1.
         11    1    4    4    0    0  0.55161183134E-01  0.62825587921E-01  0.64785185796E-01  0.10576952322E+00  0.51100000000E-03 0. -1.
</event>
<event>
 8    1  0.1093753E+005  0.1043930E+01  0.7957747E-01            NaN
         13   -1    0    0    0    0  0.00000000000E+00  0.00000000000E+00  0.74505805969E-08  0.10566000000E+00  0.10566000000E+00 0. -1.
     999900   -1    0    0    0    0 -0.00000000000E+00 -0.00000000000E+00 -0.74505805969E-08  0.93827000000E+00  0.93827000000E+00 0. -1.
     999902    2    1    2    0    0  0.13500296765E-01  0.18198365323E-01  0.87147640164E-02  0.10196527344E+01  0.10193636805E+01 0.  0.
     999903    2    3    3    0    0  0.13160151529E-01  0.10835829090E+00 -0.70470820667E-01  0.13150900465E+00  0.20341409532E-01 0.  0.
         14    1    1    2    0    0 -0.13500296765E-01 -0.18198365323E-01 -0.87147640164E-02  0.24277265600E-01  0.00000000000E+00 0. -1.
     999901    1    3    3    0    0  0.34014523597E-03 -0.90159925581E-01  0.79185584683E-01  0.88814372975E+00  0.88000000000E+00 0. -1.
        -11    1    4    4    0    0  0.31573901775E-02  0.76534057064E-01 -0.57210894047E-01  0.95607418760E-01  0.51100000000E-03 0.  1.
         11    1    4    4    0    0  0.10002761351E-01  0.31824233840E-01 -0.13259926620E-01  0.35901585886E-01  0.51100000000E-03 0. -1.
</event>
<event>
 8    1  0.1165441E+005  0.1043930E+01  0.7957747E-01            NaN
         13   -1    0    0    0    0  0.00000000000E+00  0.00000000000E+00  0.74505805969E-08  0.10566000000E+00  0.10566000000E+00 0.  1.
     999900   -1    0    0    0    0 -0.00000000000E+00 -0.00000000000E+00 -0.74505805969E-08  0.93827000000E+00  0.93827000000E+00 0.  1.
     999902    2    1    2    0    0 -0.11638845527E-01 -0.23502704160E-01 -0.15986235991E-01  0.10132151897E+01  0.10127495353E+01 0.  0.
     999903    2    3    3    0    0 -0.13767090784E-01 -0.14487692319E-01 -0.12345348226E+00  0.12662903550E+00  0.19867670581E-01 0.  0.
         14    1    1    2    0    0  0.11638845527E-01  0.23502704160E-01  0.15986235991E-01  0.30714810258E-01  0.00000000000E+00 0.  1.
     999901    1    3    3    0    0  0.21282452572E-02 -0.90150118418E-02  0.10746724626E+00  0.88658615424E+00  0.88000000000E+00 0. -1.
        -11    1    4    4    0    0 -0.18302860040E-01 -0.78148823093E-02 -0.80822783234E-01  0.83238515616E-01  0.51100000000E-03 0.  1.
         11    1    4    4    0    0  0.45357692558E-02 -0.66728100093E-02 -0.42630699021E-01  0.43390519888E-01  0.51100000000E-03 0. -1.
</event>
<event>
 8    1  0.1093753E+005  0.1043930E+01  0.7957747E-01            NaN
         13   -1    0    0    0    0  0.00000000000E+00  0.00000000000E+00  0.74505805969E-08  0.10566000000E+00  0.10566000000E+00 0.  1.
     999900   -1    0    0    0    0 -0.00000000000E+00 -0.00000000000E+00 -0.74505805969E-08  0.93827000000E+00  0.93827000000E+00 0.  1.
     999902    2    1    2    0    0 -0.19927473360E-01  0.12852452799E-01  0.66529506195E-03  0.10202080196E+01  0.10199321893E+01 0.  0.
     999903    2    3    3    0    0  0.20637724823E-01  0.82236755005E-01  0.98109988123E-01  0.13118879319E+00  0.19903018071E-01 0.  0.
         14    1    1    2    0    0  0.19927473360E-01 -0.12852452799E-01 -0.66529506195E-03  0.23721980419E-01  0.00000000000E+00 0. -1.
     999901    1    3    3    0    0 -0.40565198183E-01 -0.69384302206E-01 -0.97444693061E-01  0.88901922640E+00  0.88000000000E+00 0.  1.
        -11    1    4    4    0    0  0.34677011388E-02  0.51545155831E-01  0.63248691146E-01  0.81667533901E-01  0.51100000000E-03 0.  1.
         11    1    4    4    0    0  0.17170023684E-01  0.30691599174E-01  0.34861296977E-01  0.49521259284E-01  0.51100000000E-03 0. -1.
</event>
<event>
 8    1  0.1093753E+005  0.1043930E+01  0.7957747E-01            NaN
         13   -1    0    0    0    0  0.00000000000E+00  0.00000000000E+00  0.74505805969E-08  0.10566000000E+00  0.10566000000E+00 0.  1.
     999900   -1    0    0    0    0 -0.00000000000E+00 -0.00000000000E+00 -0.74505805969E-08  0.93827000000E+00  0.93827000000E+00 0.  1.
     999902    2    1    2    0    0 -0.33730666623E-03  0.16082897441E-01 -0.17409942599E-01  0.10202260031E+01  0.10199505959E+01 0.  0.
     999903    2    3    3    0    0 -0.10419545296E+00 -0.51464764026E-01 -0.57105268743E-01  0.13066154789E+00  0.17496114598E-01 0.  0.
         14    1    1    2    0    0  0.33730666623E-03 -0.16082897441E-01  0.17409942599E-01  0.23703996861E-01  0.00000000000E+00 0.  1.
     999901    1    3    3    0    0  0.10385814629E+00  0.67547661467E-01  0.39695326145E-01  0.88956445525E+00  0.88000000000E+00 0.  1.
        -11    1    4    4    0    0 -0.67386564682E-01 -0.23900284186E-01 -0.36239775323E-01  0.80160807882E-01  0.51100000000E-03 0. -1.
         11    1    4    4    0    0 -0.36808888276E-01 -0.27564479839E-01 -0.20865493420E-01  0.50500740011E-01  0.51100000000E-03 0.  1.
</event>
<event>
 8    1  0.1093753E+005  0.1043930E+01  0.7957747E-01            NaN
         13   -1    0    0    0    0  0.00000000000E+00  0.00000000000E+00  0.74505805969E-08  0.10566000000E+00  0.10566000000E+00 0. -1.
     999900   -1    0    0    0    0 -0.00000000000E+00 -0.00000000000E+00 -0.74505805969E-08  0.93827000000E+00  0.93827000000E+00 0. -1.
     999902    2    1    2    0    0 -0.18645855779E-01  0.11980725651E-01  0.47995357702E-02  0.10212531116E+01  0.10210013108E+01 0.  0.
     999903    2    3    3    0    0 -0.70177895119E-01  0.11064465943E+00  0.20582481795E-01  0.13410079980E+00  0.19804250245E-01 0.  0.
         14    1    1    2    0    0  0.18645855779E-01 -0.11980725651E-01 -0.47995357702E-02  0.22676888421E-01  0.00000000000E+00 0.  1.
     999901    1    3    3    0    0  0.51532039340E-01 -0.98663933776E-01 -0.15782946025E-01  0.88715231178E+00  0.88000000000E+00 0. -1.
        -11    1    4    4    0    0 -0.51653010033E-01  0.71167437800E-01  0.21313618111E-01  0.90484081951E-01  0.51100000000E-03 0.  1.
         11    1    4    4    0    0 -0.18524885085E-01  0.39477221627E-01 -0.73113631566E-03  0.43616717851E-01  0.51100000000E-03 0. -1.
</event>
<event>
 8    1  0.1093753E+005  0.1043930E+01  0.7957747E-01            NaN
         13   -1    0    0    0    0  0.00000000000E+00  0.00000000000E+00  0.74505805969E-08  0.10566000000E+00  0.10566000000E+00 0.  1.
     999900   -1    0    0    0    0 -0.00000000000E+00 -0.00000000000E+00 -0.74505805969E-08  0.93827000000E+00  0.93827000000E+00 0.  1.
     999902    2    1    2    0    0  0.47768741349E-02  0.64209446942E-02  0.21727222374E-01  0.10207757509E+01  0.10205131133E+01 0.  0.
     999903    2    3    3    0    0 -0.17958178832E-01  0.11374448403E+00 -0.58096053574E-01  0.13037865969E+00  0.19056222789E-01 0.  0.
         14    1    1    2    0    0 -0.47768741349E-02 -0.64209446942E-02 -0.21727222374E-01  0.23154249056E-01  0.00000000000E+00 0. -1.
     999901    1    3    3    0    0  0.22735052967E-01 -0.10732353934E+00  0.79823275949E-01  0.89039709125E+00  0.88000000000E+00 0. -1.
        -11    1    4    4    0    0 -0.10286869790E-01  0.99553382438E-01 -0.45684578118E-01  0.11001835049E+00  0.51100000000E-03 0.  1.
         11    1    4    4    0    0 -0.76713090416E-02  0.14191101594E-01 -0.12411475456E-01  0.20360309204E-01  0.51100000000E-03 0. -1.
</event>
<event>
 7    1  0.1093753E+005  0.1043930E+01  0.7957747E-01            NaN
         13   -1    0    0    0    0  0.00000000000E+00  0.00000000000E+00  0.74505805969E-08  0.10566000000E+00  0.10566000000E+00 0. -1.
     999900   -1    0    0    0    0 -0.00000000000E+00 -0.00000000000E+00 -0.74505805969E-08  0.93827000000E+00  0.93827000000E+00 0.  1.
     999903    2    1    2    0    0  0.51340066250E-01 -0.67531059040E-01 -0.45932183116E-01  0.98795981568E-01  0.21322152578E-01 0.  0.
         14    1    1    2    0    0 -0.41887431679E-01 -0.12885545091E-02 -0.40368568683E-01  0.58187959605E-01  0.00000000000E+00 0.  1.
     999901    1    1    2    0    0 -0.94526345705E-02  0.68819613549E-01  0.86300751799E-01  0.88694605883E+00  0.88000000000E+00 0. -1.
        -11    1    3    3    0    0  0.24478649191E-01 -0.37051660131E-01 -0.12381747453E-01  0.46104214294E-01  0.51100000000E-03 0.  1.
         11    1    3    3    0    0  0.26861417059E-01 -0.30479398909E-01 -0.33550435663E-01  0.52691767273E-01  0.51100000000E-03 0. -1.
</event>
<event>
 8    1  0.1093753E+005  0.1043930E+01  0.7957747E-01            NaN
         13   -1    0    0    0    0  0.00000000000E+00  0.00000000000E+00  0.74505805969E-08  0.10566000000E+00  0.10566000000E+00 0. -1.
     999900   -1    0    0    0    0 -0.00000000000E+00 -0.00000000000E+00 -0.74505805969E-08  0.93827000000E+00  0.93827000000E+00 0.  1.
     999902    2    1    2    0    0 -0.56273619856E-02  0.10145204913E-01  0.20686632730E-01  0.10202123028E+01  0.10199365734E+01 0.  0.
     999903    2    3    3    0    0 -0.70656758695E-01  0.35845487576E-03  0.11147391474E+00  0.13310073516E+00  0.17229799558E-01 0.  0.
         14    1    1    2    0    0  0.56273619856E-02 -0.10145204913E-01 -0.20686632730E-01  0.23717697177E-01  0.00000000000E+00 0.  1.
     999901    1    3    3    0    0  0.65029396709E-01  0.97867500374E-02 -0.90787282009E-01  0.88711156767E+00  0.88000000000E+00 0.  1.
        -11    1    4    4    0    0 -0.10840693608E-01  0.29187106642E-02  0.29668217494E-01  0.31725443419E-01  0.51100000000E-03 0. -1.
         11    1    4    4    0    0 -0.59816065087E-01 -0.25602557884E-02  0.81805697246E-01  0.10137529174E+00  0.51100000000E-03 0.  1.
</event>
<event>
 8    1  0.1093753E+005  0.1043930E+01  0.7957747E-01            NaN
         13   -1    0    0    0    0  0.00000000000E+00  0.00000000000E+00  0.74505805969E-08  0.10566000000E+00  0.10566000000E+00 0. -1.
     999900   -1    0    0    0    0 -0.00000000000E+00 -0.00000000000E+00 -0.74505805969E-08  0.93827000000E+00  0.93827000000E+00 0.  1.
     999902    2    1    2    0    0 -0.54720152493E-02 -0.22582899923E-01  0.23368848908E-02  0.10205763846E+01  0.10203091519E+01 0.  0.
     999903    2    3    3    0    0  0.11386157163E+00  0.28519266681E-01  0.51430434444E-01  0.12969922531E+00  0.19974818952E-01 0.  0.
         14    1    1    2    0    0  0.54720152493E-02  0.22582899923E-01 -0.23368848908E-02  0.23353615369E-01  0.00000000000E+00 0. -1.
     999901    1    3    3    0    0 -0.11933358688E+00 -0.51102166604E-01 -0.49093549554E-01  0.89087715932E+00  0.88000000000E+00 0.  1.
        -11    1    4    4    0    0  0.65340344211E-01  0.13155358041E-01  0.18854029560E-01  0.69268748930E-01  0.51100000000E-03 0.  1.
         11    1    4    4    0    0  0.48521227423E-01  0.15363908640E-01  0.32576404885E-01  0.60430476380E-01  0.51100000000E-03 0. -1.
</event>
<event>
 8    1  0.1093753E+005  0.1043930E+01  0.7957747E-01            NaN
         13   -1    0    0    0    0  0.00000000000E+00  0.00000000000E+00  0.74505805969E-08  0.10566000000E+00  0.10566000000E+00 0. -1.
     999900   -1    0    0    0    0 -0.00000000000E+00 -0.00000000000E+00 -0.74505805969E-08  0.93827000000E+00  0.93827000000E+00 0. -1.
     999902    2    1    2    0    0 -0.58575113180E-03  0.12247296359E-01 -0.21125627403E-01  0.10195039585E+01  0.10192113077E+01 0.  0.
     999903    2    3    3    0    0 -0.60596988702E-01  0.56649410243E-02 -0.11583925207E+00  0.13236510420E+00  0.19942464555E-01 0.  0.
         14    1    1    2    0    0  0.58575113180E-03 -0.12247296359E-01  0.21125627403E-01  0.24426041547E-01  0.00000000000E+00 0. -1.
     999901    1    3    3    0    0  0.60011237571E-01  0.65823553349E-02  0.94713624664E-01  0.88713885426E+00  0.88000000000E+00 0.  1.
        -11    1    4    4    0    0 -0.35906457446E-01  0.12442132877E-01 -0.76581734836E-01  0.85493295576E-01  0.51100000000E-03 0. -1.
         11    1    4    4    0    0 -0.24690531257E-01 -0.67771918529E-02 -0.39257517230E-01  0.46871808619E-01  0.51100000000E-03 0.  1.
</event>
<event>
 8    1  0.1093753E+005  0.1043930E+01  0.7957747E-01            NaN
         13   -1    0    0    0    0  0.00000000000E+00  0.00000000000E+00  0.74505805969E-08  0.10566000000E+00  0.10566000000E+00 0.  1.
     999900   -1    0    0    0    0 -0.00000000000E+00 -0.00000000000E+00 -0.74505805969E-08  0.93827000000E+00  0.93827000000E+00 0.  1.
     999902    2    1    2    0    0 -0.15151392253E-02 -0.13013710453E-01 -0.21376641472E-01  0.10188578420E+01  0.10185493062E+01 0.  0.
     999903    2    3    3    0    0 -0.29824130325E-01 -0.11990350345E+00  0.36305414553E-01  0.13006425155E+00  0.18229029465E-01 0.  0.
         14    1    1    2    0    0  0.15151392253E-02  0.13013710453E-01  0.21376641472E-01  0.25072158010E-01  0.00000000000E+00 0.  1.
     999901    1    3    3    0    0  0.28308991100E-01  0.10688979300E+00 -0.57682056025E-01  0.88879359044E+00  0.88000000000E+00 0.  1.
        -11    1    4    4    0    0 -0.10926847279E-01 -0.33906066958E-01  0.23880779628E-02  0.35706881765E-01  0.51100000000E-03 0. -1.
         11    1    4    4    0    0 -0.18897283046E-01 -0.85997436493E-01  0.33917336590E-01  0.94357369783E-01  0.51100000000E-03 0.  1.
</event>
<event>
 8    1  0.1093753E+005  0.1043930E+01  0.7957747E-01            NaN
         13   -1    0    0    0    0  0.00000000000E+00  0.00000000000E+00  0.74505805969E-08  0.10566000000E+00  0.10566000000E+00 0.  1.
     999900   -1    0    0    0    0 -0.00000000000E+00 -0.00000000000E+00 -0.74505805969E-08  0.93827000000E+00  0.93827000000E+00 0.  1.
     999902    2    1    2    0    0  0.71584526614E-02 -0.17187694916E-01  0.15105756220E-01  0.10199540918E+01  0.10196722539E+01 0.  0.
     999903    2    3    3    0    0 -0.78881748913E-01  0.57080166780E-01  0.83932126273E-01  0.12997897939E+00  0.19221277568E-01 0.  0.
         14    1    1    2    0    0 -0.71584526614E-02  0.17187694916E-01 -0.15105756220E-01  0.23975908159E-01  0.00000000000E+00 0. -1.
     999901    1    3    3    0    0  0.86040201575E-01 -0.74267861697E-01 -0.68826370053E-01  0.88997511245E+00  0.88000000000E+00 0.  1.
        -11    1    4    4    0    0 -0.29695869957E-01  0.31068392598E-01  0.29433516134E-01  0.52093019725E-01  0.51100000000E-03 0.  1.
         11    1    4    4    0    0 -0.49185878956E-01  0.26011774183E-01  0.54498610139E-01  0.77885959665E-01  0.51100000000E-03 0. -1.
</event>
<event>
 8    1  0.1093753E+005  0.1043930E+01  0.7957747E-01            NaN
         13   -1    0    0    0    0  0.00000000000E+00  0.00000000000E+00  0.74505805969E-08  0.10566000000E+00  0.10566000000E+00 0.  1.
     999900   -1    0    0    0    0 -0.00000000000E+00 -0.00000000000E+00 -0.74505805969E-08  0.93827000000E+00  0.93827000000E+00 0.  1.
     999902    2    1    2    0    0  0.59448447248E-02  0.22832412338E-01 -0.22745445712E-02  0.10202269668E+01  0.10199515821E+01 0.  0.
     999903    2    3    3    0    0 -0.11266524946E+00  0.59618581986E-01 -0.24047601698E-01  0.13124122855E+00  0.19953424970E-01 0.  0.
         14    1    1    2    0    0 -0.59448447248E-02 -0.22832412338E-01  0.22745445712E-02  0.23703033245E-01  0.00000000000E+00 0. -1.
     999901    1    3    3    0    0  0.11861009419E+00 -0.36786169648E-01  0.21773057127E-01  0.88898573821E+00  0.88000000000E+00 0.  1.
        -11    1    4    4    0    0 -0.60382075031E-01  0.25240916863E-01 -0.41493274781E-02  0.65578783983E-01  0.51100000000E-03 0. -1.
         11    1    4    4    0    0 -0.52283174434E-01  0.34377665124E-01 -0.19898274220E-01  0.65662444565E-01  0.51100000000E-03 0.  1.
</event>
<event>
 8    1  0.1093753E+005  0.1043930E+01  0.7957747E-01            NaN
         13   -1    0    0    0    0  0.00000000000E+00  0.00000000000E+00  0.74505805969E-08  0.10566000000E+00  0.10566000000E+00 0.  1.
     999900   -1    0    0    0    0 -0.00000000000E+00 -0.00000000000E+00 -0.74505805969E-08  0.93827000000E+00  0.93827000000E+00 0. -1.
     999902    2    1    2    0    0  0.15800444060E-01  0.14702248903E-01  0.10867990110E-01  0.10197654937E+01  0.10194791507E+01 0.  0.
     999903    2    3    3    0    0 -0.68751700808E-01 -0.22174293182E-01 -0.10325444335E+00  0.12761479210E+00  0.20138506648E-01 0.  0.
         14    1    1    2    0    0 -0.15800444060E-01 -0.14702248903E-01 -0.10867990110E-01  0.24164506292E-01  0.00000000000E+00 0. -1.
     999901    1    3    3    0    0  0.84552144868E-01  0.36876542084E-01  0.11412243346E+00  0.89215070161E+00  0.88000000000E+00 0. -1.
        -11    1    4    4    0    0 -0.66465736759E-01 -0.24436660793E-01 -0.10189140565E+00  0.12408450435E+00  0.51100000000E-03 0. -1.
         11    1    4    4    0    0 -0.22859640494E-02  0.22623676117E-02 -0.13630376995E-02  0.35302877525E-02  0.51100000000E-03 0.  1.
</event>
<event>
 8    1  0.1093753E+005  0.1043930E+01  0.7957747E-01            NaN
         13   -1    0    0    0    0  0.00000000000E+00  0.00000000000E+00  0.74505805969E-08  0.10566000000E+00  0.10566000000E+00 0. -1.
     999900   -1    0    0    0    0 -0.00000000000E+00 -0.00000000000E+00 -0.74505805969E-08  0.93827000000E+00  0.93827000000E+00 0.  1.
     999902    2    1    2    0    0 -0.10128155779E-01  0.20845760303E-01  0.86272273920E-02  0.10192003758E+01  0.10189003149E+01 0.  0.
     999903    2    3    3    0    0  0.76312597097E-01  0.12049263412E-01 -0.10036350972E+00  0.12822991448E+00  0.20031965942E-01 0.  0.
         14    1    1    2    0    0  0.10128155779E-01 -0.20845760303E-01 -0.86272273920E-02  0.24729624230E-01  0.00000000000E+00 0.  1.
     999901    1    3    3    0    0 -0.86440752876E-01  0.87964968912E-02  0.10899073711E+00  0.89097046129E+00  0.88000000000E+00 0. -1.
        -11    1    4    4    0    0  0.48477178343E-01  0.28810622184E-02 -0.75617211127E-01  0.89869689435E-01  0.51100000000E-03 0.  1.
         11    1    4    4    0    0  0.27835418754E-01  0.91682011937E-02 -0.24746298594E-01  0.38360225044E-01  0.51100000000E-03 0. -1.
</event>
<event>
 8    1  0.1093753E+005  0.1043930E+01  0.7957747E-01            NaN
         13   -1    0    0    0    0  0.00000000000E+00  0.00000000000E+00  0.74505805969E-08  0.10566000000E+00  0.10566000000E+00 0.  1.
     999900   -1    0    0    0    0 -0.00000000000E+00 -0.00000000000E+00 -0.74505805969E-08  0.93827000000E+00  0.93827000000E+00 0. -1.
     999902    2    1    2    0    0 -0.13600376628E-01  0.33667772347E-02  0.18356880971E-01  0.10208371329E+01  0.10205759018E+01 0.  0.
     999903    2    3    3    0    0 -0.23731305927E-01 -0.28505321618E-01 -0.12195522711E+00  0.12909392202E+00  0.20406740124E-01 0.  0.
         14    1    1    2    0    0  0.13600376628E-01 -0.33667772347E-02 -0.18356880971E-01  0.23092867132E-01  0.00000000000E+00 0. -1.
     999901    1    3    3    0    0  0.10130929299E-01  0.31872098853E-01  0.14031210808E+00  0.89174321084E+00  0.88000000000E+00 0.  1.
        -11    1    4    4    0    0 -0.16383074670E-01 -0.16236739865E-01 -0.10176011333E+00  0.10434279392E+00  0.51100000000E-03 0.  1.
         11    1    4    4    0    0 -0.73482312569E-02 -0.12268581754E-01 -0.20195113782E-01  0.24751128106E-01  0.51100000000E-03 0. -1.
</event>
<event>
 8    1  0.1093753E+005  0.1043930E+01  0.7957747E-01            NaN
         13   -1    0    0    0    0  0.00000000000E+00  0.00000000000E+00  0.74505805969E-08  0.10566000000E+00  0.10566000000E+00 0.  1.
     999900   -1    0    0    0    0 -0.00000000000E+00 -0.00000000000E+00 -0.74505805969E-08  0.93827000000E+00  0.93827000000E+00 0.  1.
     999902    2    1    2    0    0 -0.10359032082E-01  0.14197149244E-01  0.16582362351E-01  0.10197671497E+01  0.10194808465E+01 0.  0.
     999903    2    3    3    0    0  0.11096133371E+00 -0.32852175834E-01  0.54093376852E-01  0.12940803883E+00  0.20704203862E-01 0.  0.
         14    1    1    2    0    0  0.10359032082E-01 -0.14197149244E-01 -0.16582362351E-01  0.24162850277E-01  0.00000000000E+00 0. -1.
     999901    1    3    3    0    0 -0.12132036579E+00  0.47049325079E-01 -0.37511014501E-01  0.89035911090E+00  0.88000000000E+00 0.  1.
        -11    1    4    4    0    0  0.60310978349E-01 -0.74174531205E-02  0.25161169330E-01  0.65770649102E-01  0.51100000000E-03 0. -1.
         11    1    4    4    0    0  0.50650355363E-01 -0.25434722714E-01  0.28932207523E-01  0.63637389725E-01  0.51100000000E-03 0.  1.
</event>
<event>
 8    1  0.1093753E+005  0.1043930E+01  0.7957747E-01            NaN
         13   -1    0    0    0    0  0.00000000000E+00  0.00000000000E+00  0.74505805969E-08  0.10566000000E+00  0.10566000000E+00 0. -1.
     999900   -1    0    0    0    0 -0.00000000000E+00 -0.00000000000E+00 -0.74505805969E-08  0.93827000000E+00  0.93827000000E+00 0.  1.
     999902    2    1    2    0    0 -0.23165122305E-02  0.41753922793E-02  0.23474609867E-01  0.10199746783E+01  0.10196933298E+01 0.  0.
     999903    2    3    3    0    0  0.29122535905E-01  0.45854608704E-01  0.12004396872E+00  0.13315383286E+00  0.19199519312E-01 0.  0.
         14    1    1    2    0    0  0.23165122305E-02 -0.41753922793E-02 -0.23474609867E-01  0.23955321705E-01  0.00000000000E+00 0.  1.
     999901    1    3    3    0    0 -0.31439048135E-01 -0.41679216424E-01 -0.96569358854E-01  0.88682084544E+00  0.88000000000E+00 0.  1.
        -11    1    4    4    0    0  0.21737796317E-02  0.19451315173E-01  0.47693988909E-01  0.51556344700E-01  0.51100000000E-03 0. -1.
         11    1    4    4    0    0  0.26948756273E-01  0.26403293531E-01  0.72349979813E-01  0.81597488159E-01  0.51100000000E-03 0.  1.
</event>
<event>
 8    1  0.1093753E+005  0.1043930E+01  0.7957747E-01            NaN
         13   -1    0    0    0    0  0.00000000000E+00  0.00000000000E+00  0.74505805969E-08  0.10566000000E+00  0.10566000000E+00 0. -1.
     999900   -1    0    0    0    0 -0.00000000000E+00 -0.00000000000E+00 -0.74505805969E-08  0.93827000000E+00  0.93827000000E+00 0. -1.
     999902    2    1    2    0    0  0.37654290816E-02 -0.21824794145E-01 -0.10140306867E-01  0.10195717177E+01  0.10192807079E+01 0.  0.
     999903    2    3    3    0    0 -0.93662766873E-02 -0.12389438758E+00 -0.42870869560E-01  0.13297037920E+00  0.20141099169E-01 0.  0.
         14    1    1    2    0    0 -0.37654290816E-02  0.21824794145E-01  0.10140306867E-01  0.24358282349E-01  0.00000000000E+00 0. -1.
     999901    1    3    3    0    0  0.13131705769E-01  0.10206959344E+00  0.32730562693E-01  0.88660133845E+00  0.88000000000E+00 0.  1.
        -11    1    4    4    0    0 -0.12433540787E-01 -0.61443578226E-01 -0.28214074566E-01  0.68747373523E-01  0.51100000000E-03 0. -1.
         11    1    4    4    0    0  0.30672640999E-02 -0.62450809356E-01 -0.14656794994E-01  0.64223005681E-01  0.51100000000E-03 0.  1.
</event>
<event>
 8    1  0.1093753E+005  0.1043930E+01  0.7957747E-01            NaN
         13   -1    0    0    0    0  0.00000000000E+00  0.00000000000E+00  0.74505805969E-08  0.10566000000E+00  0.10566000000E+00 0. -1.
     999900   -1    0    0    0    0 -0.00000000000E+00 -0.00000000000E+00 -0.74505805969E-08  0.93827000000E+00  0.93827000000E+00 0.  1.
     999902    2    1    2    0    0 -0.29621804209E-02 -0.15914552096E-01  0.26539385889E-01  0.10128432426E+01  0.10123660640E+01 0.  0.
     999903    2    3    3    0    0 -0.29763110488E-01 -0.12041661548E+00 -0.33137157574E-02  0.12575239113E+00  0.20412719906E-01 0.  0.
         14    1    1    2    0    0  0.29621804209E-02  0.15914552096E-01 -0.26539385889E-01  0.31086757383E-01  0.00000000000E+00 0.  1.
     999901    1    3    3    0    0  0.26800930067E-01  0.10450206339E+00  0.29853101646E-01  0.88709085148E+00  0.88000000000E+00 0. -1.
        -11    1    4    4    0    0 -0.17372115342E-01 -0.79895077750E-01 -0.11572156819E-01  0.82578385638E-01  0.51100000000E-03 0. -1.
         11    1    4    4    0    0 -0.12390995146E-01 -0.40521537732E-01  0.82584410618E-02  0.43174005497E-01  0.51100000000E-03 0.  1.
</event>
<event>
 8    1  0.1093753E+005  0.1043930E+01  0.7957747E-01            NaN
         13   -1    0    0    0    0  0.00000000000E+00  0.00000000000E+00  0.74505805969E-08  0.10566000000E+00  0.10566000000E+00 0.  1.
     999900   -1    0    0    0    0 -0.00000000000E+00 -0.00000000000E+00 -0.74505805969E-08  0.93827000000E+00  0.93827000000E+00 0. -1.
     999902    2    1    2    0    0 -0.18012310587E-01  0.13664894997E-01  0.58665373669E-02  0.10205721545E+01  0.10203048238E+01 0.  0.
     999903    2    3    3    0    0 -0.12770109463E+00  0.25480974814E-02 -0.28425662559E-01  0.13302994841E+00  0.23976791127E-01 0.  0.
         14    1    1    2    0    0  0.18012310587E-01 -0.13664894997E-01 -0.58665373669E-02  0.23357845548E-01  0.00000000000E+00 0. -1.
     999901    1    3    3    0    0  0.10968878404E+00  0.11116797515E-01  0.34292199926E-01  0.88754220604E+00  0.88000000000E+00 0. -1.
        -11    1    4    4    0    0 -0.39173016319E-01  0.10924317940E-01 -0.43462387761E-02  0.40902528558E-01  0.51100000000E-03 0.  1.
         11    1    4    4    0    0 -0.88528078306E-01 -0.83762204584E-02 -0.24079423783E-01  0.92127419851E-01  0.51100000000E-03 0. -1.
</event>
<event>
 8    1  0.1093753E+005  0.1043930E+01  0.7957747E-01            NaN
         13   -1    0    0    0    0  0.00000000000E+00  0.00000000000E+00  0.74505805969E-08  0.10566000000E+00  0.10566000000E+00 0.  1.
     999900   -1    0    0    0    0 -0.00000000000E+00 -0.00000000000E+00 -0.74505805969E-08  0.93827000000E+00  0.93827000000E+00 0. -1.
     999902    2    1    2    0    0 -0.85342829775E-02  0.18656955642E-01  0.13279206468E-01  0.10194912336E+01  0.10191982742E+01 0.  0.
     999903    2    3    3    0    0  0.47558446687E-01  0.11880930019E+00 -0.21139647023E-01  0.13136875108E+00  0.20818463464E-01 0.  0.
         14    1    1    2    0    0  0.85342829775E-02 -0.18656955642E-01 -0.13279206468E-01  0.24438766421E-01  0.00000000000E+00 0. -1.
     999901    1    3    3    0    0 -0.56092729665E-01 -0.10015234455E+00  0.34418853492E-01  0.88812248250E+00  0.88000000000E+00 0. -1.
        -11    1    4    4    0    0  0.11707303463E-01  0.19595169598E-01 -0.11131834084E-01  0.25400993622E-01  0.51100000000E-03 0. -1.
         11    1    4    4    0    0  0.35851143225E-01  0.99214130595E-01 -0.10007812940E-01  0.10596775746E+00  0.51100000000E-03 0.  1.
</event>
<event>
 8    1  0.1093753E+005  0.1043930E+01  0.7957747E-01            NaN
         13   -1    0    0    0    0  0.00000000000E+00  0.00000000000E+00  0.74505805969E-08  0.10566000000E+00  0.10566000000E+00 0. -1.
     999900   -1    0    0    0    0 -0.00000000000E+00 -0.00000000000E+00 -0.74505805969E-08  0.93827000000E+00  0.93827000000E+00 0. -1.
     999902    2    1    2    0    0  0.22575949715E-01  0.81129924731E-02 -0.79745723644E-02  0.10186498110E+01  0.10183360690E+01 0.  0.
     999903    2    3    3    0    0 -0.12350040990E+00  0.17942871761E-01  0.33137583947E-02  0.12648258687E+00  0.20311718190E-01 0.  0.
         14    1    1    2    0    0 -0.22575949715E-01 -0.81129924731E-02  0.79745723644E-02  0.25280189018E-01  0.00000000000E+00 0.  1.
     999901    1    3    3    0    0  0.14607635961E+00 -0.98298792877E-02 -0.11288330759E-01  0.89216722411E+00  0.88000000000E+00 0.  1.
        -11    1    4    4    0    0 -0.87499837313E-01  0.21928627949E-01  0.17298602974E-02  0.90223831614E-01  0.51100000000E-03 0.  1.
         11    1    4    4    0    0 -0.36000572583E-01 -0.39857561887E-02  0.15838980973E-02  0.36258755258E-01  0.51100000000E-03 0. -1.
</event>
<event>
 8    1  0.1103352E+005  0.1043930E+01  0.7957747E-01            NaN
         13   -1    0    0    0    0  0.00000000000E+00  0.00000000000E+00  0.74505805969E-08  0.10566000000E+00  0.10566000000E+00 0. -1.
     999900   -1    0    0    0    0 -0.00000000000E+00 -0.00000000000E+00 -0.74505805969E-08  0.93827000000E+00  0.93827000000E+00 0.  1.
     999902    2    1    2    0    0  0.10425889590E-01 -0.72427501101E-02  0.19615685431E-01  0.10205648183E+01  0.10202973177E+01 0.  0.
     999903    2    3    3    0    0  0.73900820299E-02  0.47560808350E-01  0.12225009321E+00  0.13290133033E+00  0.20025846010E-01 0.  0.
         14    1    1    2    0    0 -0.10425889590E-01  0.72427501101E-02 -0.19615685431E-01  0.23365181742E-01  0.00000000000E+00 0.  1.
     999901    1    3    3    0    0  0.30358075605E-02 -0.54803558460E-01 -0.10263440778E+00  0.88766348793E+00  0.88000000000E+00 0.  1.
        -11    1    4    4    0    0  0.13960256586E-01  0.28611620898E-01  0.68811193706E-01  0.75820545465E-01  0.51100000000E-03 0. -1.
         11    1    4    4    0    0 -0.65701745564E-02  0.18949187453E-01  0.53438899507E-01  0.57080784861E-01  0.51100000000E-03 0.  1.
</event>
<event>
 8    1  0.1093753E+005  0.1043930E+01  0.7957747E-01            NaN
         13   -1    0    0    0    0  0.00000000000E+00  0.00000000000E+00  0.74505805969E-08  0.10566000000E+00  0.10566000000E+00 0. -1.
     999900   -1    0    0    0    0 -0.00000000000E+00 -0.00000000000E+00 -0.74505805969E-08  0.93827000000E+00  0.93827000000E+00 0.  1.
     999902    2    1    2    0    0 -0.56597861183E-02 -0.12680940039E-01  0.19360656788E-01  0.10201040803E+01  0.10198257989E+01 0.  0.
     999903    2    3    3    0    0  0.12352115069E+00 -0.31282885392E-01  0.19670490255E-01  0.13047840462E+00  0.20039767916E-01 0.  0.
         14    1    1    2    0    0  0.56597861183E-02  0.12680940039E-01 -0.19360656788E-01  0.23825919719E-01  0.00000000000E+00 0.  1.
     999901    1    3    3    0    0 -0.12918093681E+00  0.18601945354E-01 -0.30983346651E-03  0.88962567566E+00  0.88000000000E+00 0.  1.
        -11    1    4    4    0    0  0.63976150690E-01 -0.16842508888E-01  0.10745283566E-03  0.66158073051E-01  0.51100000000E-03 0. -1.
         11    1    4    4    0    0  0.59545000000E-01 -0.14440376504E-01  0.19563037419E-01  0.64320331565E-01  0.51100000000E-03 0.  1.
</event>
<event>
 8    1  0.1093753E+005  0.1043930E+01  0.7957747E-01            NaN
         13   -1    0    0    0    0  0.00000000000E+00  0.00000000000E+00  0.74505805969E-08  0.10566000000E+00  0.10566000000E+00 0.  1.
     999900   -1    0    0    0    0 -0.00000000000E+00 -0.00000000000E+00 -0.74505805969E-08  0.93827000000E+00  0.93827000000E+00 0. -1.
     999902    2    1    2    0    0  0.10921284011E-01 -0.20942425950E-01  0.14136611155E-02  0.10202686795E+01  0.10199942747E+01 0.  0.
     999903    2    3    3    0    0 -0.10053824693E+00  0.55548772784E-01  0.53844284990E-01  0.12840372290E+00  0.19867153197E-01 0.  0.
         14    1    1    2    0    0 -0.10921284011E-01  0.20942425950E-01 -0.14136611155E-02  0.23661320480E-01  0.00000000000E+00 0.  1.
     999901    1    3    3    0    0  0.11145953094E+00 -0.76491198735E-01 -0.52430623874E-01  0.89186495662E+00  0.88000000000E+00 0.  1.
        -11    1    4    4    0    0 -0.53744149667E-01  0.32017906988E-01  0.39893287479E-01  0.74197813297E-01  0.51100000000E-03 0. -1.
         11    1    4    4    0    0 -0.46794097261E-01  0.23530865797E-01  0.13950997511E-01  0.54205909606E-01  0.51100000000E-03 0.  1.
</event>
<event>
 8    1  0.1093753E+005  0.1043930E+01  0.7957747E-01            NaN
         13   -1    0    0    0    0  0.00000000000E+00  0.00000000000E+00  0.74505805969E-08  0.10566000000E+00  0.10566000000E+00 0. -1.
     999900   -1    0    0    0    0 -0.00000000000E+00 -0.00000000000E+00 -0.74505805969E-08  0.93827000000E+00  0.93827000000E+00 0. -1.
     999902    2    1    2    0    0 -0.41007484091E-02 -0.22126902836E-01  0.59992764457E-02  0.10206403610E+01  0.10203746073E+01 0.  0.
     999903    2    3    3    0    0  0.57214084027E-01  0.31987794848E-01 -0.10780646632E+00  0.12955133275E+00  0.29404816046E-01 0.  0.
         14    1    1    2    0    0  0.41007484091E-02  0.22126902836E-01 -0.59992764457E-02  0.23289638994E-01  0.00000000000E+00 0.  1.
     999901    1    3    3    0    0 -0.61314832436E-01 -0.54114697684E-01  0.11380574277E+00  0.89108902825E+00  0.88000000000E+00 0.  1.
        -11    1    4    4    0    0  0.33168323332E-01  0.18529366659E-02 -0.52594727489E-01  0.62209625682E-01  0.51100000000E-03 0.  1.
         11    1    4    4    0    0  0.24045760696E-01  0.30134858182E-01 -0.55211738836E-01  0.67341707072E-01  0.51100000000E-03 0. -1.
</event>
<event>
 8    1  0.1093753E+005  0.1043930E+01  0.7957747E-01            NaN
         13   -1    0    0    0    0  0.00000000000E+00  0.00000000000E+00  0.74505805969E-08  0.10566000000E+00  0.10566000000E+00 0.  1.
     999900   -1    0    0    0    0 -0.00000000000E+00 -0.00000000000E+00 -0.74505805969E-08  0.93827000000E+00  0.93827000000E+00 0. -1.
     999902    2    1    2    0    0  0.18512448186E-01 -0.67197726546E-02 -0.11923964663E-01  0.10209072500E+01  0.10206476210E+01 0.  0.
     999903    2    3    3    0    0 -0.19619443969E-01 -0.98674229401E-01 -0.83530991929E-01  0.13240444776E+00  0.20784249886E-01 0.  0.
         14    1    1    2    0    0 -0.18512448186E-01  0.67197726546E-02  0.11923964663E-01  0.23022749959E-01  0.00000000000E+00 0.  1.
     999901    1    3    3    0    0  0.38131892156E-01  0.91954456747E-01  0.71607027266E-01  0.88850280229E+00  0.88000000000E+00 0.  1.
        -11    1    4    4    0    0 -0.40188217163E-02 -0.61178564035E-01 -0.58205777177E-01  0.84540766752E-01  0.51100000000E-03 0.  1.
         11    1    4    4    0    0 -0.15600622253E-01 -0.37495665367E-01 -0.25325214752E-01  0.47863681004E-01  0.51100000000E-03 0. -1.
</event>
<event>
 8    1  0.1093753E+005  0.1043930E+01  0.7957747E-01            NaN
         13   -1    0    0    0    0  0.00000000000E+00  0.00000000000E+00  0.74505805969E-08  0.10566000000E+00  0.10566000000E+00 0.  1.
     999900   -1    0    0    0    0 -0.00000000000E+00 -0.00000000000E+00 -0.74505805969E-08  0.93827000000E+00  0.93827000000E+00 0. -1.
     999902    2    1    2    0    0  0.96845336278E-02  0.17453889059E-01  0.13234297700E-01  0.10199805726E+01  0.10196993643E+01 0.  0.
     999903    2    3    3    0    0  0.58031391539E-01  0.80212819293E-01  0.86991702871E-01  0.13334859893E+00  0.20311417638E-01 0.  0.
         14    1    1    2    0    0 -0.96845336278E-02 -0.17453889059E-01 -0.13234297700E-01  0.23949427352E-01  0.00000000000E+00 0. -1.
     999901    1    3    3    0    0 -0.48346857911E-01 -0.62758930234E-01 -0.73757405171E-01  0.88663197371E+00  0.88000000000E+00 0.  1.
        -11    1    4    4    0    0  0.22655019178E-01  0.46215864867E-01  0.37730412961E-01  0.63820069277E-01  0.51100000000E-03 0.  1.
         11    1    4    4    0    0  0.35376372361E-01  0.33996954426E-01  0.49261289909E-01  0.69528529657E-01  0.51100000000E-03 0. -1.
</event>
<event>
 8    1  0.1093753E+005  0.1043930E+01  0.7957747E-01            NaN
         13   -1    0    0    0    0  0.00000000000E+00  0.00000000000E+00  0.74505805969E-08  0.10566000000E+00  0.10566000000E+00 0. -1.
     999900   -1    0    0    0    0 -0.00000000000E+00 -0.00000000000E+00 -0.74505805969E-08  0.93827000000E+00  0.93827000000E+00 0. -1.
     999902    2    1    2    0    0 -0.17419476189E-01  0.74472872560E-02 -0.34235498066E-02  0.10246784824E+01  0.10244976190E+01 0.  0.
     999903    2    3    3    0    0 -0.43278212334E-01  0.68010868807E-01 -0.10754195691E+00  0.13609687984E+00  0.21415094375E-01 0.  0.
         14    1    1    2    0    0  0.17419476189E-01 -0.74472872560E-02  0.34235498066E-02  0.19251517640E-01  0.00000000000E+00 0.  1.
     999901    1    3    3    0    0  0.25858736146E-01 -0.60563581551E-01  0.10411840710E+00  0.88858160252E+00  0.88000000000E+00 0.  1.
        -11    1    4    4    0    0 -0.25641045319E-01  0.41524812110E-01 -0.81404233746E-01  0.94914085459E-01  0.51100000000E-03 0.  1.
         11    1    4    4    0    0 -0.17637167016E-01  0.26486056696E-01 -0.26137723162E-01  0.41182794378E-01  0.51100000000E-03 0. -1.
</event>
<event>
 8    1  0.1093753E+005  0.1043930E+01  0.7957747E-01            NaN
         13   -1    0    0    0    0  0.00000000000E+00  0.00000000000E+00  0.74505805969E-08  0.10566000000E+00  0.10566000000E+00 0.  1.
     999900   -1    0    0    0    0 -0.00000000000E+00 -0.00000000000E+00 -0.74505805969E-08  0.93827000000E+00  0.93827000000E+00 0.  1.
     999902    2    1    2    0    0 -0.10349188554E-01 -0.33232935785E-02  0.21359415657E-01  0.10199638860E+01  0.10196822810E+01 0.  0.
     999903    2    3    3    0    0 -0.12565128631E+00 -0.23921033115E-01  0.26810974145E-01  0.13218657150E+00  0.19849427498E-01 0.  0.
         14    1    1    2    0    0  0.10349188554E-01  0.33232935785E-02 -0.21359415657E-01  0.23966114018E-01  0.00000000000E+00 0. -1.
     999901    1    3    3    0    0  0.11530209776E+00  0.20597739536E-01 -0.54515584880E-02  0.88777731448E+00  0.88000000000E+00 0.  1.
        -11    1    4    4    0    0 -0.49043452217E-01 -0.11994488050E-01  0.20167280817E-01  0.54370104704E-01  0.51100000000E-03 0. -1.
         11    1    4    4    0    0 -0.76607834097E-01 -0.11926545065E-01  0.66436933280E-02  0.77816466794E-01  0.51100000000E-03 0.  1.
</event>
<event>
 8    1  0.1093753E+005  0.1043930E+01  0.7957747E-01            NaN
         13   -1    0    0    0    0  0.00000000000E+00  0.00000000000E+00  0.74505805969E-08  0.10566000000E+00  0.10566000000E+00 0. -1.
     999900   -1    0    0    0    0 -0.00000000000E+00 -0.00000000000E+00 -0.74505805969E-08  0.93827000000E+00  0.93827000000E+00 0. -1.
     999902    2    1    2    0    0  0.14342432772E-01  0.17430771632E-01 -0.74981218462E-02  0.10201443108E+01  0.10198669795E+01 0.  0.
     999903    2    3    3    0    0 -0.53483375158E-01  0.27399507397E-01  0.11270358161E+00  0.12933110628E+00  0.20328141082E-01 0.  0.
         14    1    1    2    0    0 -0.14342432772E-01 -0.17430771632E-01  0.74981218462E-02  0.23785689159E-01  0.00000000000E+00 0. -1.
     999901    1    3    3    0    0  0.67825807930E-01 -0.99687357643E-02 -0.12020170345E+00  0.89081320456E+00  0.88000000000E+00 0. -1.
        -11    1    4    4    0    0 -0.43436093041E-02  0.30633414549E-02  0.27442421975E-01  0.27957085819E-01  0.51100000000E-03 0. -1.
         11    1    4    4    0    0 -0.49139765854E-01  0.24336165942E-01  0.85261159632E-01  0.10137402046E+00  0.51100000000E-03 0.  1.
</event>
<event>
 8    1  0.1093753E+005  0.1043930E+01  0.7957747E-01            NaN
         13   -1    0    0    0    0  0.00000000000E+00  0.00000000000E+00  0.74505805969E-08  0.10566000000E+00  0.10566000000E+00 0.  1.
     999900   -1    0    0    0    0 -0.00000000000E+00 -0.00000000000E+00 -0.74505805969E-08  0.93827000000E+00  0.93827000000E+00 0.  1.
     999902    2    1    2    0    0  0.64383864872E-02  0.19160517927E-01 -0.11710563055E-01  0.10205694445E+01  0.10203020511E+01 0.  0.
     999903    2    3    3    0    0 -0.27165193563E-01  0.98577112348E-01  0.80206370006E-01  0.13158973792E+00  0.20673715607E-01 0.  0.
         14    1    1    2    0    0 -0.64383864872E-02 -0.19160517927E-01  0.11710563055E-01  0.23360555534E-01  0.00000000000E+00 0.  1.
     999901    1    3    3    0    0  0.33603580050E-01 -0.79416594421E-01 -0.91916933061E-01  0.88897970654E+00  0.88000000000E+00 0.  1.
        -11    1    4    4    0    0 -0.45441599685E-02  0.51725295474E-01  0.45556612270E-01  0.69078373057E-01  0.51100000000E-03 0.  1.
         11    1    4    4    0    0 -0.22621033595E-01  0.46851816874E-01  0.34649757736E-01  0.62511364866E-01  0.51100000000E-03 0. -1.
</event>
<event>
 8    1  0.1093753E+005  0.1043930E+01  0.7957747E-01            NaN
         13   -1    0    0    0    0  0.00000000000E+00  0.00000000000E+00  0.74505805969E-08  0.10566000000E+00  0.10566000000E+00 0.  1.
     999900   -1    0    0    0    0 -0.00000000000E+00 -0.00000000000E+00 -0.74505805969E-08  0.93827000000E+00  0.93827000000E+00 0. -1.
     999902    2    1    2    0    0 -0.37823243856E-02  0.19670151541E-01 -0.13765483231E-01  0.10196254867E+01  0.10193357757E+01 0.  0.
     999903    2    3    3    0    0 -0.76985192824E-01  0.80639025505E-01 -0.69388870733E-01  0.13273776843E+00  0.19368206862E-01 0.  0.
         14    1    1    2    0    0  0.37823243856E-02 -0.19670151541E-01  0.13765483231E-01  0.24304513325E-01  0.00000000000E+00 0. -1.
     999901    1    3    3    0    0  0.73202868438E-01 -0.60968873964E-01  0.55623387502E-01  0.88688771825E+00  0.88000000000E+00 0.  1.
        -11    1    4    4    0    0 -0.47723786518E-01  0.53404365213E-01 -0.54795392661E-01  0.90179721674E-01  0.51100000000E-03 0. -1.
         11    1    4    4    0    0 -0.29261406306E-01  0.27234660292E-01 -0.14593478072E-01  0.42558046753E-01  0.51100000000E-03 0.  1.
</event>
<event>
 8    1  0.1093753E+005  0.1043930E+01  0.7957747E-01            NaN
         13   -1    0    0    0    0  0.00000000000E+00  0.00000000000E+00  0.74505805969E-08  0.10566000000E+00  0.10566000000E+00 0.  1.
     999900   -1    0    0    0    0 -0.00000000000E+00 -0.00000000000E+00 -0.74505805969E-08  0.93827000000E+00  0.93827000000E+00 0.  1.
     999902    2    1    2    0    0  0.14153622850E-01  0.18243447007E-01 -0.27735098418E-02  0.10206740168E+01  0.10204090394E+01 0.  0.
     999903    2    3    3    0    0  0.10934260262E+00 -0.69602779238E-01  0.22211359437E-02  0.13117817766E+00  0.20060638643E-01 0.  0.
         14    1    1    2    0    0 -0.14153622850E-01 -0.18243447007E-01  0.27735098418E-02  0.23255983216E-01  0.00000000000E+00 0.  1.
     999901    1    3    3    0    0 -0.95188979774E-01  0.87846226245E-01 -0.49946457855E-02  0.88949583913E+00  0.88000000000E+00 0.  1.
        -11    1    4    4    0    0  0.69181680332E-01 -0.53671216960E-01 -0.32693611590E-02  0.87622224732E-01  0.51100000000E-03 0. -1.
         11    1    4    4    0    0  0.40160922292E-01 -0.15931562278E-01  0.54904971027E-02  0.43555952927E-01  0.51100000000E-03 0.  1.
</event>
<event>
 8    1  0.1093753E+005  0.1043930E+01  0.7957747E-01            NaN
         13   -1    0    0    0    0  0.00000000000E+00  0.00000000000E+00  0.74505805969E-08  0.10566000000E+00  0.10566000000E+00 0.  1.
     999900   -1    0    0    0    0 -0.00000000000E+00 -0.00000000000E+00 -0.74505805969E-08  0.93827000000E+00  0.93827000000E+00 0. -1.
     999902    2    1    2    0    0  0.54085289308E-02 -0.14122058712E-01 -0.17861676960E-01  0.10205264910E+01  0.10202581020E+01 0.  0.
     999903    2    3    3    0    0  0.13441960137E-01 -0.11944656169E+00  0.49964113938E-01  0.13161810159E+00  0.19461361481E-01 0.  0.
         14    1    1    2    0    0 -0.54085289308E-02  0.14122058712E-01  0.17861676960E-01  0.23403508953E-01  0.00000000000E+00 0.  1.
     999901    1    3    3    0    0 -0.80334312064E-02  0.10532450298E+00 -0.67825790898E-01  0.88890838946E+00  0.88000000000E+00 0. -1.
        -11    1    4    4    0    0  0.66363243594E-03 -0.71072077820E-01  0.22574705435E-01  0.74575861377E-01  0.51100000000E-03 0. -1.
         11    1    4    4    0    0  0.12778327701E-01 -0.48374483873E-01  0.27389408503E-01  0.57042240208E-01  0.51100000000E-03 0.  1.
</event>
<event>
 8    1  0.1093753E+005  0.1043930E+01  0.7957747E-01            NaN
         13   -1    0    0    0    0  0.00000000000E+00  0.00000000000E+00  0.74505805969E-08  0.10566000000E+00  0.10566000000E+00 0.  1.
     999900   -1    0    0    0    0 -0.00000000000E+00 -0.00000000000E+00 -0.74505805969E-08  0.93827000000E+00  0.93827000000E+00 0. -1.
     999902    2    1    2    0    0  0.27242330476E-01 -0.94193920549E-02  0.10031756319E-01  0.10134094225E+01  0.10129497282E+01 0.  0.
     999903    2    3    3    0    0 -0.52493762932E-01 -0.98784670234E-01 -0.48177633424E-01  0.12339125943E+00  0.19756323553E-01 0.  0.
         14    1    1    2    0    0 -0.27242330476E-01  0.94193920549E-02 -0.10031756319E-01  0.30520577506E-01  0.00000000000E+00 0.  1.
     999901    1    3    3    0    0  0.79736093409E-01  0.89365278179E-01  0.58209389744E-01  0.89001816307E+00  0.88000000000E+00 0. -1.
        -11    1    4    4    0    0 -0.14445809369E-01 -0.14498699366E-01 -0.13991532861E-01  0.24797536258E-01  0.51100000000E-03 0.  1.
         11    1    4    4    0    0 -0.38047953563E-01 -0.84285970868E-01 -0.34186100563E-01  0.98593723168E-01  0.51100000000E-03 0. -1.
</event>
<event>
 8    1  0.1093753E+005  0.1043930E+01  0.7957747E-01            NaN
         13   -1    0    0    0    0  0.00000000000E+00  0.00000000000E+00  0.74505805969E-08  0.10566000000E+00  0.10566000000E+00 0. -1.
     999900   -1    0    0    0    0 -0.00000000000E+00 -0.00000000000E+00 -0.74505805969E-08  0.93827000000E+00  0.93827000000E+00 0. -1.
     999902    2    1    2    0    0  0.34169185717E-02 -0.15424905036E-01 -0.17825212318E-01  0.10201110743E+01  0.10198329582E+01 0.  0.
     999903    2    3    3    0    0  0.19614510513E-01  0.92829263623E-01  0.82901756136E-01  0.12762732139E+00  0.20347746480E-01 0.  0.
         14    1    1    2    0    0 -0.34169185717E-02  0.15424905036E-01  0.17825212318E-01  0.23818925712E-01  0.00000000000E+00 0. -1.
     999901    1    3    3    0    0 -0.16197591942E-01 -0.10825416866E+00 -0.10072696845E+00  0.89248375290E+00  0.88000000000E+00 0. -1.
        -11    1    4    4    0    0  0.16907725926E-01  0.45364191695E-01  0.32342177616E-01  0.58224210241E-01  0.51100000000E-03 0. -1.
         11    1    4    4    0    0  0.27067845873E-02  0.47465071927E-01  0.50559578519E-01  0.69403111147E-01  0.51100000000E-03 0.  1.
</event>
<event>
 8    1  0.1093753E+005  0.1043930E+01  0.7957747E-01            NaN
         13   -1    0    0    0    0  0.00000000000E+00  0.00000000000E+00  0.74505805969E-08  0.10566000000E+00  0.10566000000E+00 0.  1.
     999900   -1    0    0    0    0 -0.00000000000E+00 -0.00000000000E+00 -0.74505805969E-08  0.93827000000E+00  0.93827000000E+00 0. -1.
     999902    2    1    2    0    0  0.10442407363E-01 -0.10940389220E-01 -0.17626333024E-01  0.10207045053E+01  0.10204402303E+01 0.  0.
     999903    2    3    3    0    0  0.59585269161E-02  0.12412024227E+00  0.16814758042E-01  0.12972321027E+00  0.33227046357E-01 0.  0.
         14    1    1    2    0    0 -0.10442407363E-01  0.10940389220E-01  0.17626333024E-01  0.23225494692E-01  0.00000000000E+00 0. -1.
     999901    1    3    3    0    0  0.44838804468E-02 -0.13506063149E+00 -0.34441091066E-01  0.89098129504E+00  0.88000000000E+00 0. -1.
        -11    1    4    4    0    0 -0.85127400044E-02  0.13794740741E-01 -0.35533414414E-02  0.16602679630E-01  0.51100000000E-03 0.  1.
         11    1    4    4    0    0  0.14471266921E-01  0.11032550153E+00  0.20368099483E-01  0.11312053064E+00  0.51100000000E-03 0. -1.
</event>
<event>
 8    1  0.1093753E+005  0.1043930E+01  0.7957747E-01            NaN
         13   -1    0    0    0    0  0.00000000000E+00  0.00000000000E+00  0.74505805969E-08  0.10566000000E+00  0.10566000000E+00 0.  1.
     999900   -1    0    0    0    0 -0.00000000000E+00 -0.00000000000E+00 -0.74505805969E-08  0.93827000000E+00  0.93827000000E+00 0. -1.
     999902    2    1    2    0    0 -0.24818635495E-02 -0.67463671161E-02 -0.22223357488E-01  0.10205729725E+01  0.10203056608E+01 0.  0.
     999903    2    3    3    0    0  0.11680723028E+00 -0.50443563501E-02 -0.57627482719E-01  0.13181752985E+00  0.19635677565E-01 0.  0.
         14    1    1    2    0    0  0.24818635495E-02  0.67463671161E-02  0.22223357488E-01  0.23357027508E-01  0.00000000000E+00 0.  1.
     999901    1    3    3    0    0 -0.11928909383E+00 -0.17020107660E-02  0.35404125231E-01  0.88875544265E+00  0.88000000000E+00 0. -1.
        -11    1    4    4    0    0  0.60264916325E-01 -0.10188374353E-01 -0.36768127834E-01  0.71328952447E-01  0.51100000000E-03 0.  1.
         11    1    4    4    0    0  0.56542313957E-01  0.51440180032E-02 -0.20859354884E-01  0.60488577401E-01  0.51100000000E-03 0. -1.
</event>
<event>
 8    1  0.1093753E+005  0.1043930E+01  0.7957747E-01            NaN
         13   -1    0    0    0    0  0.00000000000E+00  0.00000000000E+00  0.74505805969E-08  0.10566000000E+00  0.10566000000E+00 0.  1.
     999900   -1    0    0    0    0 -0.00000000000E+00 -0.00000000000E+00 -0.74505805969E-08  0.93827000000E+00  0.93827000000E+00 0.  1.
     999902    2    1    2    0    0 -0.14515694717E-01  0.16999771776E-01 -0.15143028424E-02  0.10215248500E+01  0.10212791139E+01 0.  0.
     999903    2    3    3    0    0 -0.48973722539E-01  0.10507478904E+00  0.64081084948E-01  0.13402988142E+00  0.20456951745E-01 0.  0.
         14    1    1    2    0    0  0.14515694717E-01 -0.16999771776E-01  0.15143028424E-02  0.22405150003E-01  0.00000000000E+00 0.  1.
     999901    1    3    3    0    0  0.34458027822E-01 -0.88075017263E-01 -0.65595387790E-01  0.88749496858E+00  0.88000000000E+00 0.  1.
        -11    1    4    4    0    0 -0.12188675735E-01  0.22435763306E-01  0.24157922979E-01  0.35153856900E-01  0.51100000000E-03 0. -1.
         11    1    4    4    0    0 -0.36785046805E-01  0.82639025733E-01  0.39923161969E-01  0.98876024521E-01  0.51100000000E-03 0.  1.
</event>
<event>
 8    1  0.1093753E+005  0.1043930E+01  0.7957747E-01            NaN
         13   -1    0    0    0    0  0.00000000000E+00  0.00000000000E+00  0.74505805969E-08  0.10566000000E+00  0.10566000000E+00 0. -1.
     999900   -1    0    0    0    0 -0.00000000000E+00 -0.00000000000E+00 -0.74505805969E-08  0.93827000000E+00  0.93827000000E+00 0. -1.
     999902    2    1    2    0    0  0.22744438661E-01 -0.12354764811E-02  0.61479169764E-02  0.10203369337E+01  0.10200641282E+01 0.  0.
     999903    2    3    3    0    0  0.45482464337E-01  0.12164006068E+00 -0.23347927838E-02  0.13146834289E+00  0.20335068256E-01 0.  0.
         14    1    1    2    0    0 -0.22744438661E-01  0.12354764811E-02 -0.61479169764E-02  0.23593066254E-01  0.00000000000E+00 0.  1.
     999901    1    3    3    0    0 -0.22738025676E-01 -0.12287553716E+00  0.84827097601E-02  0.88886859086E+00  0.88000000000E+00 0.  1.
        -11    1    4    4    0    0  0.30117601286E-01  0.79419475332E-01 -0.11183507142E-01  0.85672953271E-01  0.51100000000E-03 0. -1.
         11    1    4    4    0    0  0.15364863051E-01  0.42220585347E-01  0.88487143579E-02  0.45795389620E-01  0.51100000000E-03 0.  1.
</event>
<event>
 8    1  0.1093753E+005  0.1043930E+01  0.7957747E-01            NaN
         13   -1    0    0    0    0  0.00000000000E+00  0.00000000000E+00  0.74505805969E-08  0.10566000000E+00  0.10566000000E+00 0. -1.
     999900   -1    0    0    0    0 -0.00000000000E+00 -0.00000000000E+00 -0.74505805969E-08  0.93827000000E+00  0.93827000000E+00 0.  1.
     999902    2    1    2    0    0 -0.13683601552E-01  0.11756879317E-01 -0.15982771242E-01  0.10198278395E+01  0.10195429898E+01 0.  0.
     999903    2    3    3    0    0  0.10546480329E+00  0.15422654898E-01 -0.71413226398E-01  0.13006252460E+00  0.21347795789E-01 0.  0.
         14    1    1    2    0    0  0.13683601552E-01 -0.11756879317E-01  0.15982771242E-01  0.24102160469E-01  0.00000000000E+00 0. -1.
     999901    1    3    3    0    0 -0.11914840484E+00 -0.36657755811E-02  0.55430455156E-01  0.88976531493E+00  0.88000000000E+00 0. -1.
        -11    1    4    4    0    0  0.96783831793E-01  0.11061942941E-01 -0.57608761839E-01  0.11317467579E+00  0.51100000000E-03 0. -1.
         11    1    4    4    0    0  0.86809714961E-02  0.43607119569E-02 -0.13804464559E-01  0.16887848816E-01  0.51100000000E-03 0.  1.
</event>
<event>
 8    1  0.1093753E+005  0.1043930E+01  0.7957747E-01            NaN
         13   -1    0    0    0    0  0.00000000000E+00  0.00000000000E+00  0.74505805969E-08  0.10566000000E+00  0.10566000000E+00 0. -1.
     999900   -1    0    0    0    0 -0.00000000000E+00 -0.00000000000E+00 -0.74505805969E-08  0.93827000000E+00  0.93827000000E+00 0.  1.
     999902    2    1    2    0    0  0.12450207775E-01  0.18629477979E-01 -0.62921950834E-02  0.10206564777E+01  0.10203910959E+01 0.  0.
     999903    2    3    3    0    0 -0.34737825306E-01  0.11228136181E+00  0.57209086983E-01  0.13215785715E+00  0.19467892950E-01 0.  0.
         14    1    1    2    0    0 -0.12450207775E-01 -0.18629477979E-01  0.62921950834E-02  0.23273522346E-01  0.00000000000E+00 0. -1.
     999901    1    3    3    0    0  0.47188033081E-01 -0.93651883833E-01 -0.63501282066E-01  0.88849862050E+00  0.88000000000E+00 0.  1.
        -11    1    4    4    0    0 -0.33588692520E-01  0.80757817812E-01  0.44625330850E-01  0.98192192548E-01  0.51100000000E-03 0.  1.
         11    1    4    4    0    0 -0.11491327863E-02  0.31523544001E-01  0.12583756133E-01  0.33965664603E-01  0.51100000000E-03 0. -1.
</event>
<event>
 8    1  0.1093753E+005  0.1043930E+01  0.7957747E-01            NaN
         13   -1    0    0    0    0  0.00000000000E+00  0.00000000000E+00  0.74505805969E-08  0.10566000000E+00  0.10566000000E+00 0.  1.
     999900   -1    0    0    0    0 -0.00000000000E+00 -0.00000000000E+00 -0.74505805969E-08  0.93827000000E+00  0.93827000000E+00 0. -1.
     999902    2    1    2    0    0  0.10881968113E-01  0.24758131376E-02  0.21963246253E-01  0.10192940290E+01  0.10189962642E+01 0.  0.
     999903    2    3    3    0    0  0.11282987926E+00 -0.52545014726E-01 -0.32565410283E-01  0.13002801568E+00  0.18847246158E-01 0.  0.
         14    1    1    2    0    0 -0.10881968113E-01 -0.24758131376E-02 -0.21963246253E-01  0.24635970991E-01  0.00000000000E+00 0. -1.
     999901    1    3    3    0    0 -0.10194791114E+00  0.55020827864E-01  0.54528656536E-01  0.88926601333E+00  0.88000000000E+00 0.  1.
        -11    1    4    4    0    0  0.11660897347E-01 -0.62508241759E-02  0.22897760093E-02  0.13437020688E-01  0.51100000000E-03 0. -1.
         11    1    4    4    0    0  0.10116898191E+00 -0.46294190551E-01 -0.34855186293E-01  0.11659099499E+00  0.51100000000E-03 0.  1.
</event>
<event>
 8    1  0.1093753E+005  0.1043930E+01  0.7957747E-01            NaN
         13   -1    0    0    0    0  0.00000000000E+00  0.00000000000E+00  0.74505805969E-08  0.10566000000E+00  0.10566000000E+00 0. -1.
     999900   -1    0    0    0    0 -0.00000000000E+00 -0.00000000000E+00 -0.74505805969E-08  0.93827000000E+00  0.93827000000E+00 0.  1.
     999902    2    1    2    0    0  0.16701574911E-01 -0.11192293501E-01 -0.10759256475E-01  0.10211271134E+01  0.10208724749E+01 0.  0.
     999903    2    3    3    0    0  0.59324742892E-01 -0.10757940648E+00  0.46935195012E-01  0.13296279315E+00  0.19581573325E-01 0.  0.
         14    1    1    2    0    0 -0.16701574911E-01  0.11192293501E-01  0.10759256475E-01  0.22802886621E-01  0.00000000000E+00 0. -1.
     999901    1    3    3    0    0 -0.42623167981E-01  0.96387112977E-01 -0.57694451487E-01  0.88816432023E+00  0.88000000000E+00 0. -1.
        -11    1    4    4    0    0  0.40462796009E-01 -0.54896796199E-01  0.21628512253E-01  0.71546836108E-01  0.51100000000E-03 0.  1.
         11    1    4    4    0    0  0.18861946883E-01 -0.52682610280E-01  0.25306682759E-01  0.61415957042E-01  0.51100000000E-03 0. -1.
</event>
<event>
 7    1  0.1418027E+005  0.1043930E+01  0.7957747E-01            NaN
         13   -1    0    0    0    0  0.00000000000E+00  0.00000000000E+00  0.74505805969E-08  0.10566000000E+00  0.10566000000E+00 0. -1.
     999900   -1    0    0    0    0 -0.00000000000E+00 -0.00000000000E+00 -0.74505805969E-08  0.93827000000E+00  0.93827000000E+00 0. -1.
     999903    2    1    2    0    0 -0.72238102870E-01 -0.55008283093E-01  0.38415854362E-01  0.98945220839E-01  0.83740160869E-02 0.  0.
         14    1    1    2    0    0  0.30304655606E-01 -0.29926971797E-01  0.37371921751E-01  0.56662653730E-01  0.00000000000E+00 0.  1.
     999901    1    1    2    0    0  0.41933447264E-01  0.84935254890E-01 -0.75787776113E-01  0.88832212543E+00  0.88000000000E+00 0. -1.
        -11    1    3    3    0    0 -0.27510689178E-01 -0.19530905604E-01  0.18489357314E-01  0.38476119187E-01  0.51100000000E-03 0. -1.
         11    1    3    3    0    0 -0.44727413692E-01 -0.35477377488E-01  0.19926497048E-01  0.60469101652E-01  0.51100000000E-03 0.  1.
</event>
<event>
 8    1  0.1093753E+005  0.1043930E+01  0.7957747E-01            NaN
         13   -1    0    0    0    0  0.00000000000E+00  0.00000000000E+00  0.74505805969E-08  0.10566000000E+00  0.10566000000E+00 0. -1.
     999900   -1    0    0    0    0 -0.00000000000E+00 -0.00000000000E+00 -0.74505805969E-08  0.93827000000E+00  0.93827000000E+00 0. -1.
     999902    2    1    2    0    0  0.16076767441E-01 -0.16076240389E-01  0.99078739945E-02  0.10191293161E+01  0.10188275070E+01 0.  0.
     999903    2    3    3    0    0 -0.10146649758E+00 -0.77242929174E-01  0.64291075439E-02  0.12920241751E+00  0.19748696853E-01 0.  0.
         14    1    1    2    0    0 -0.16076767441E-01  0.16076240389E-01 -0.99078739945E-02  0.24800683932E-01  0.00000000000E+00 0. -1.
     999901    1    3    3    0    0  0.11754326502E+00  0.61166688784E-01  0.34787664506E-02  0.88992689856E+00  0.88000000000E+00 0. -1.
        -11    1    4    4    0    0 -0.76176330217E-01 -0.67993229574E-01  0.51961228829E-02  0.10224076177E+00  0.51100000000E-03 0. -1.
         11    1    4    4    0    0 -0.25290167362E-01 -0.92496995993E-02  0.12329846610E-02  0.26961655736E-01  0.51100000000E-03 0.  1.
</event>
<event>
 8    1  0.1093753E+005  0.1043930E+01  0.7957747E-01            NaN
         13   -1    0    0    0    0  0.00000000000E+00  0.00000000000E+00  0.74505805969E-08  0.10566000000E+00  0.10566000000E+00 0.  1.
     999900   -1    0    0    0    0 -0.00000000000E+00 -0.00000000000E+00 -0.74505805969E-08  0.93827000000E+00  0.93827000000E+00 0. -1.
     999902    2    1    2    0    0 -0.12101151235E-01 -0.15302936022E-01 -0.70415771576E-02  0.10231887001E+01  0.10229784526E+01 0.  0.
     999903    2    3    3    0    0 -0.94059054949E-01 -0.68592556983E-01 -0.66784175274E-01  0.13576204979E+00  0.20473480497E-01 0.  0.
         14    1    1    2    0    0  0.12101151235E-01  0.15302936022E-01  0.70415771576E-02  0.20741299886E-01  0.00000000000E+00 0.  1.
     999901    1    3    3    0    0  0.81957903714E-01  0.53289620961E-01  0.59742598116E-01  0.88742665033E+00  0.88000000000E+00 0. -1.
        -11    1    4    4    0    0 -0.39908759341E-01 -0.39689577119E-01 -0.25546174296E-01  0.61812941575E-01  0.51100000000E-03 0. -1.
         11    1    4    4    0    0 -0.54150295608E-01 -0.28902979863E-01 -0.41238000978E-01  0.73949108210E-01  0.51100000000E-03 0.  1.
</event>
<event>
 8    1  0.1093753E+005  0.1043930E+01  0.7957747E-01            NaN
         13   -1    0    0    0    0  0.00000000000E+00  0.00000000000E+00  0.74505805969E-08  0.10566000000E+00  0.10566000000E+00 0.  1.
     999900   -1    0    0    0    0 -0.00000000000E+00 -0.00000000000E+00 -0.74505805969E-08  0.93827000000E+00  0.93827000000E+00 0. -1.
     999902    2    1    2    0    0  0.13229966574E-01 -0.14860877138E-01  0.12422279005E-01  0.10204738558E+01  0.10202042441E+01 0.  0.
     999903    2    3    3    0    0 -0.20752186485E-01 -0.12716088878E+00 -0.20462556627E-01  0.13207783389E+00  0.20622635640E-01 0.  0.
         14    1    1    2    0    0 -0.13229966574E-01  0.14860877138E-01 -0.12422279005E-01  0.23456144196E-01  0.00000000000E+00 0. -1.
     999901    1    3    3    0    0  0.33982153059E-01  0.11230001165E+00  0.32884835632E-01  0.88839602192E+00  0.88000000000E+00 0. -1.
        -11    1    4    4    0    0 -0.16209009848E-01 -0.39500216073E-01 -0.62341387769E-02  0.43152342664E-01  0.51100000000E-03 0.  1.
         11    1    4    4    0    0 -0.45431766371E-02 -0.87660672710E-01 -0.14228417850E-01  0.88925491224E-01  0.51100000000E-03 0. -1.
</event>
<event>
 8    1  0.1093753E+005  0.1043930E+01  0.7957747E-01            NaN
         13   -1    0    0    0    0  0.00000000000E+00  0.00000000000E+00  0.74505805969E-08  0.10566000000E+00  0.10566000000E+00 0. -1.
     999900   -1    0    0    0    0 -0.00000000000E+00 -0.00000000000E+00 -0.74505805969E-08  0.93827000000E+00  0.93827000000E+00 0. -1.
     999902    2    1    2    0    0 -0.72780957768E-02  0.22274731565E-01  0.19464601827E-02  0.10204156841E+01  0.10201447178E+01 0.  0.
     999903    2    3    3    0    0 -0.11582429007E+00 -0.37020949463E-01  0.43670479606E-01  0.13078702682E+00  0.20305632856E-01 0.  0.
         14    1    1    2    0    0  0.72780957768E-02 -0.22274731565E-01 -0.19464601827E-02  0.23514315888E-01  0.00000000000E+00 0. -1.
     999901    1    3    3    0    0  0.10854619429E+00  0.59295681028E-01 -0.41724019423E-01  0.88962865730E+00  0.88000000000E+00 0. -1.
        -11    1    4    4    0    0 -0.17406230915E-01 -0.55276959807E-02 -0.80318587575E-03  0.18287660487E-01  0.51100000000E-03 0.  1.
         11    1    4    4    0    0 -0.98418059153E-01 -0.31493253482E-01  0.44473665482E-01  0.11249936633E+00  0.51100000000E-03 0. -1.
</event>
<event>
 8    1  0.1093753E+005  0.1043930E+01  0.7957747E-01            NaN
         13   -1    0    0    0    0  0.00000000000E+00  0.00000000000E+00  0.74505805969E-08  0.10566000000E+00  0.10566000000E+00 0.  1.
     999900   -1    0    0    0    0 -0.00000000000E+00 -0.00000000000E+00 -0.74505805969E-08  0.93827000000E+00  0.93827000000E+00 0. -1.
     999902    2    1    2    0    0 -0.21893152619E-01 -0.67975765299E-02  0.24649168896E-02  0.10208736995E+01  0.10206133045E+01 0.  0.
     999903    2    3    3    0    0  0.82823757298E-01  0.95233606599E-01  0.16373774527E-01  0.12870249961E+00  0.19157722100E-01 0.  0.
         14    1    1    2    0    0  0.21893152619E-01  0.67975765299E-02 -0.24649168896E-02  0.23056300517E-01  0.00000000000E+00 0.  1.
     999901    1    3    3    0    0 -0.10471690992E+00 -0.10203118313E+00 -0.13908857637E-01  0.89217119987E+00  0.88000000000E+00 0. -1.
        -11    1    4    4    0    0  0.27909263464E-01  0.20116159545E-01  0.76187500335E-02  0.35240507020E-01  0.51100000000E-03 0.  1.
         11    1    4    4    0    0  0.54914493834E-01  0.75117447054E-01  0.87550244936E-02  0.93461992595E-01  0.51100000000E-03 0. -1.
</event>
<event>
 8    1  0.1093753E+005  0.1043930E+01  0.7957747E-01            NaN
         13   -1    0    0    0    0  0.00000000000E+00  0.00000000000E+00  0.74505805969E-08  0.10566000000E+00  0.10566000000E+00 0.  1.
     999900   -1    0    0    0    0 -0.00000000000E+00 -0.00000000000E+00 -0.74505805969E-08  0.93827000000E+00  0.93827000000E+00 0. -1.
     999902    2    1    2    0    0  0.17444990650E-01  0.11159979104E-01 -0.78274641428E-02  0.10217908485E+01  0.10215509758E+01 0.  0.
     999903    2    3    3    0    0  0.88847809894E-01 -0.71976795264E-01 -0.65381798496E-01  0.13312747738E+00  0.19327526450E-01 0.  0.
         14    1    1    2    0    0 -0.17444990650E-01 -0.11159979104E-01  0.78274641428E-02  0.22139151458E-01  0.00000000000E+00 0. -1.
     999901    1    3    3    0    0 -0.71402819244E-01  0.83136774368E-01  0.57554334353E-01  0.88866337117E+00  0.88000000000E+00 0. -1.
        -11    1    4    4    0    0  0.27067785313E-01 -0.33733067219E-01 -0.22478387811E-01  0.48745500975E-01  0.51100000000E-03 0. -1.
         11    1    4    4    0    0  0.61780024581E-01 -0.38243728045E-01 -0.42903410685E-01  0.84381976401E-01  0.51100000000E-03 0.  1.
</event>
<event>
 8    1  0.1093753E+005  0.1043930E+01  0.7957747E-01            NaN
         13   -1    0    0    0    0  0.00000000000E+00  0.00000000000E+00  0.74505805969E-08  0.10566000000E+00  0.10566000000E+00 0. -1.
     999900   -1    0    0    0    0 -0.00000000000E+00 -0.00000000000E+00 -0.74505805969E-08  0.93827000000E+00  0.93827000000E+00 0. -1.
     999902    2    1    2    0    0  0.12216111761E-01 -0.79465188129E-02  0.18248670744E-01  0.10205763165E+01  0.10203090823E+01 0.  0.
     999903    2    3    3    0    0 -0.10677128938E-01  0.11847822741E+00  0.49701277520E-01  0.13069060285E+00  0.21417871840E-01 0.  0.
         14    1    1    2    0    0 -0.12216111761E-01  0.79465188129E-02 -0.18248670744E-01  0.23353683472E-01  0.00000000000E+00 0.  1.
     999901    1    3    3    0    0  0.22893240699E-01 -0.12642474622E+00 -0.31452606776E-01  0.88988571367E+00  0.88000000000E+00 0. -1.
        -11    1    4    4    0    0  0.46743242397E-02  0.66522326923E-01  0.26896799378E-01  0.71908053959E-01  0.51100000000E-03 0.  1.
         11    1    4    4    0    0 -0.15351453177E-01  0.51955900489E-01  0.22804478142E-01  0.58782548895E-01  0.51100000000E-03 0. -1.
</event>
<event>
 8    1  0.1093753E+005  0.1043930E+01  0.7957747E-01            NaN
         13   -1    0    0    0    0  0.00000000000E+00  0.00000000000E+00  0.74505805969E-08  0.10566000000E+00  0.10566000000E+00 0.  1.
     999900   -1    0    0    0    0 -0.00000000000E+00 -0.00000000000E+00 -0.74505805969E-08  0.93827000000E+00  0.93827000000E+00 0.  1.
     999902    2    1    2    0    0  0.84496895011E-02  0.33729744868E-02  0.20887675599E-01  0.10211469097E+01  0.10208927182E+01 0.  0.
     999903    2    3    3    0    0  0.81505829928E-01  0.57731193602E-01 -0.82185583730E-01  0.13046396255E+00  0.17037732358E-01 0.  0.
         14    1    1    2    0    0 -0.84496895011E-02 -0.33729744868E-02 -0.20887675599E-01  0.22783090253E-01  0.00000000000E+00 0. -1.
     999901    1    3    3    0    0 -0.73056140427E-01 -0.54358219115E-01  0.10307325933E+00  0.89068294720E+00  0.88000000000E+00 0. -1.
        -11    1    4    4    0    0  0.15492432866E-01  0.75793680177E-02 -0.22281443698E-01  0.28181308520E-01  0.51100000000E-03 0. -1.
         11    1    4    4    0    0  0.66013397062E-01  0.50151825585E-01 -0.59904140032E-01  0.10228265403E+00  0.51100000000E-03 0.  1.
</event>
<event>
 8    1  0.1093753E+005  0.1043930E+01  0.7957747E-01            NaN
         13   -1    0    0    0    0  0.00000000000E+00  0.00000000000E+00  0.74505805969E-08  0.10566000000E+00  0.10566000000E+00 0. -1.
     999900   -1    0    0    0    0 -0.00000000000E+00 -0.00000000000E+00 -0.74505805969E-08  0.93827000000E+00  0.93827000000E+00 0.  1.
     999902    2    1    2    0    0 -0.19080476363E-01 -0.10483861181E-01  0.62262792161E-02  0.10212861824E+01  0.10210351237E+01 0.  0.
     999903    2    3    3    0    0  0.30827650788E-01 -0.12067427406E+00 -0.37312414854E-01  0.13194464724E+00  0.22462171751E-01 0.  0.
         14    1    1    2    0    0  0.19080476363E-01  0.10483861181E-01 -0.62262792161E-02  0.22643817619E-01  0.00000000000E+00 0.  1.
     999901    1    3    3    0    0 -0.49908127151E-01  0.11019041288E+00  0.43538694070E-01  0.88934153514E+00  0.88000000000E+00 0. -1.
        -11    1    4    4    0    0  0.58938402175E-02 -0.41680076972E-01 -0.22700967688E-01  0.47828456215E-01  0.51100000000E-03 0. -1.
         11    1    4    4    0    0  0.24933810571E-01 -0.78994197088E-01 -0.14611447166E-01  0.84116191024E-01  0.51100000000E-03 0.  1.
</event>
<event>
 8    1  0.1093753E+005  0.1043930E+01  0.7957747E-01            NaN
         13   -1    0    0    0    0  0.00000000000E+00  0.00000000000E+00  0.74505805969E-08  0.10566000000E+00  0.10566000000E+00 0.  1.
     999900   -1    0    0    0    0 -0.00000000000E+00 -0.00000000000E+00 -0.74505805969E-08  0.93827000000E+00  0.93827000000E+00 0. -1.
     999902    2    1    2    0    0 -0.20783426058E-01  0.10057484803E-01 -0.54702906978E-02  0.10202017915E+01  0.10199258147E+01 0.  0.
     999903    2    3    3    0    0  0.43643364475E-01 -0.91210267024E-01 -0.77657919901E-01  0.12912546326E+00  0.20459146268E-01 0.  0.
         14    1    1    2    0    0  0.20783426058E-01 -0.10057484803E-01  0.54702906978E-02  0.23728208521E-01  0.00000000000E+00 0.  1.
     999901    1    3    3    0    0 -0.64426790533E-01  0.10126775183E+00  0.72187629203E-01  0.89107632822E+00  0.88000000000E+00 0.  1.
        -11    1    4    4    0    0  0.19904446079E-01 -0.36982381423E-01 -0.44838763773E-01  0.61438256544E-01  0.51100000000E-03 0.  1.
         11    1    4    4    0    0  0.23738918396E-01 -0.54227885602E-01 -0.32819156128E-01  0.67687206719E-01  0.51100000000E-03 0. -1.
</event>
<event>
 8    1  0.1093753E+005  0.1043930E+01  0.7957747E-01            NaN
         13   -1    0    0    0    0  0.00000000000E+00  0.00000000000E+00  0.74505805969E-08  0.10566000000E+00  0.10566000000E+00 0.  1.
     999900   -1    0    0    0    0 -0.00000000000E+00 -0.00000000000E+00 -0.74505805969E-08  0.93827000000E+00  0.93827000000E+00 0. -1.
     999902    2    1    2    0    0 -0.15553369295E-01 -0.94455113066E-02  0.14932525790E-01  0.10203905585E+01  0.10201190061E+01 0.  0.
     999903    2    3    3    0    0 -0.94382405938E-01 -0.88471943927E-01 -0.20281211349E-01  0.13264104350E+00  0.21142267492E-01 0.  0.
         14    1    1    2    0    0  0.15553369295E-01  0.94455113066E-02 -0.14932525790E-01  0.23539441513E-01  0.00000000000E+00 0. -1.
     999901    1    3    3    0    0  0.78829036643E-01  0.79026432621E-01  0.35213737139E-01  0.88774951498E+00  0.88000000000E+00 0.  1.
        -11    1    4    4    0    0 -0.17090323205E-01 -0.16205054200E-01 -0.12171033430E-01  0.26515620012E-01  0.51100000000E-03 0. -1.
         11    1    4    4    0    0 -0.77292082734E-01 -0.72266889728E-01 -0.81101779182E-02  0.10612542349E+00  0.51100000000E-03 0.  1.
</event>
<event>
 8    1  0.1093753E+005  0.1043930E+01  0.7957747E-01            NaN
         13   -1    0    0    0    0  0.00000000000E+00  0.00000000000E+00  0.74505805969E-08  0.10566000000E+00  0.10566000000E+00 0.  1.
     999900   -1    0    0    0    0 -0.00000000000E+00 -0.00000000000E+00 -0.74505805969E-08  0.93827000000E+00  0.93827000000E+00 0. -1.
     999902    2    1    2    0    0 -0.27056851090E-02  0.21856076098E-01 -0.95222626866E-02  0.10199366201E+01  0.10196543663E+01 0.  0.
     999903    2    3    3    0    0  0.92506251234E-02 -0.77891904606E-01  0.98698682647E-01  0.12763376451E+00  0.19905401757E-01 0.  0.
         14    1    1    2    0    0  0.27056851090E-02 -0.21856076098E-01  0.95222626866E-02  0.23993379940E-01  0.00000000000E+00 0. -1.
     999901    1    3    3    0    0 -0.11956310232E-01  0.99747980704E-01 -0.10822094533E+00  0.89230285555E+00  0.88000000000E+00 0. -1.
        -11    1    4    4    0    0  0.12719771263E-01 -0.26384081675E-01  0.35127244746E-01  0.45739444588E-01  0.51100000000E-03 0. -1.
         11    1    4    4    0    0 -0.34691461399E-02 -0.51507822932E-01  0.63571437901E-01  0.81894319924E-01  0.51100000000E-03 0.  1.
</event>
<event>
 8    1  0.1093753E+005  0.1043930E+01  0.7957747E-01            NaN
         13   -1    0    0    0    0  0.00000000000E+00  0.00000000000E+00  0.74505805969E-08  0.10566000000E+00  0.10566000000E+00 0.  1.
     999900   -1    0    0    0    0 -0.00000000000E+00 -0.00000000000E+00 -0.74505805969E-08  0.93827000000E+00  0.93827000000E+00 0. -1.
     999902    2    1    2    0    0  0.21012685188E-01  0.38313937694E-03  0.15642543174E-01  0.10177313571E+01  0.10173940958E+01 0.  0.
     999903    2    3    3    0    0 -0.95366688285E-01  0.71194210168E-01  0.39042250869E-01  0.12694186867E+00  0.20652357555E-01 0.  0.
         14    1    1    2    0    0 -0.21012685188E-01 -0.38313937694E-03 -0.15642543174E-01  0.26198642934E-01  0.00000000000E+00 0. -1.
     999901    1    3    3    0    0  0.11637937347E+00 -0.70811070792E-01 -0.23399707695E-01  0.89078948840E+00  0.88000000000E+00 0. -1.
        -11    1    4    4    0    0 -0.70540421551E-01  0.40979741692E-01  0.28775138844E-01  0.86507572144E-01  0.51100000000E-03 0. -1.
         11    1    4    4    0    0 -0.24826266735E-01  0.30214468476E-01  0.10267112025E-01  0.40434296527E-01  0.51100000000E-03 0.  1.
</event>
<event>
 8    1  0.1093753E+005  0.1043930E+01  0.7957747E-01            NaN
         13   -1    0    0    0    0  0.00000000000E+00  0.00000000000E+00  0.74505805969E-08  0.10566000000E+00  0.10566000000E+00 0.  1.
     999900   -1    0    0    0    0 -0.00000000000E+00 -0.00000000000E+00 -0.74505805969E-08  0.93827000000E+00  0.93827000000E+00 0. -1.
     999902    2    1    2    0    0  0.15405140116E-01  0.15036501016E-02 -0.20578661461E-01  0.10181800366E+01  0.10178543739E+01 0.  0.
     999903    2    3    3    0    0  0.24967796411E-01  0.12475020457E+00 -0.13036164407E-01  0.12950796729E+00  0.20405087843E-01 0.  0.
         14    1    1    2    0    0 -0.15405140116E-01 -0.15036501016E-02  0.20578661461E-01  0.25749963362E-01  0.00000000000E+00 0.  1.
     999901    1    3    3    0    0 -0.95626562952E-02 -0.12324655447E+00 -0.75424970541E-02  0.88867206935E+00  0.88000000000E+00 0.  1.
        -11    1    4    4    0    0  0.21114265412E-01  0.54764012588E-01 -0.79189489800E-02  0.59227359832E-01  0.51100000000E-03 0.  1.
         11    1    4    4    0    0  0.38535309990E-02  0.69986191983E-01 -0.51172154271E-02  0.70280607454E-01  0.51100000000E-03 0. -1.
</event>
<event>
 8    1  0.1093753E+005  0.1043930E+01  0.7957747E-01            NaN
         13   -1    0    0    0    0  0.00000000000E+00  0.00000000000E+00  0.74505805969E-08  0.10566000000E+00  0.10566000000E+00 0. -1.
     999900   -1    0    0    0    0 -0.00000000000E+00 -0.00000000000E+00 -0.74505805969E-08  0.93827000000E+00  0.93827000000E+00 0.  1.
     999902    2    1    2    0    0  0.17846278411E-01 -0.12466944942E-01  0.99478335419E-02  0.10199952186E+01  0.10197143581E+01 0.  0.
     999903    2    3    3    0    0  0.48046121875E-01  0.52164610999E-01 -0.10632868326E+00  0.12948441184E+00  0.20756867716E-01 0.  0.
         14    1    1    2    0    0 -0.17846278411E-01  0.12466944942E-01 -0.99478335419E-02  0.23934781417E-01  0.00000000000E+00 0.  1.
     999901    1    3    3    0    0 -0.30199843464E-01 -0.64631555941E-01  0.11627651680E+00  0.89051080674E+00  0.88000000000E+00 0.  1.
        -11    1    4    4    0    0  0.35683821001E-01  0.27463399190E-01 -0.54014706845E-01  0.70323701928E-01  0.51100000000E-03 0. -1.
         11    1    4    4    0    0  0.12362300874E-01  0.24701211809E-01 -0.52313976415E-01  0.59160709910E-01  0.51100000000E-03 0.  1.
</event>
<event>
 8    1  0.1093753E+005  0.1043930E+01  0.7957747E-01            NaN
         13   -1    0    0    0    0  0.00000000000E+00  0.00000000000E+00  0.74505805969E-08  0.10566000000E+00  0.10566000000E+00 0.  1.
     999900   -1    0    0    0    0 -0.00000000000E+00 -0.00000000000E+00 -0.74505805969E-08  0.93827000000E+00  0.93827000000E+00 0. -1.
     999902    2    1    2    0    0  0.13463223219E-01 -0.18800964206E-01  0.52765707497E-02  0.10202112978E+01  0.10199355447E+01 0.  0.
     999903    2    3    3    0    0 -0.18808534237E-01 -0.40238459626E-01 -0.12097795657E+00  0.13035668148E+00  0.19603669006E-01 0.  0.
         14    1    1    2    0    0 -0.13463223219E-01  0.18800964206E-01 -0.52765707497E-02  0.23718702186E-01  0.00000000000E+00 0. -1.
     999901    1    3    3    0    0  0.32271757456E-01  0.21437495420E-01  0.12625452732E+00  0.88985461633E+00  0.88000000000E+00 0.  1.
        -11    1    4    4    0    0 -0.22457287482E-01 -0.30272536747E-01 -0.88803352230E-01  0.96473067383E-01  0.51100000000E-03 0. -1.
         11    1    4    4    0    0  0.36487532449E-02 -0.99659228790E-02 -0.32174604338E-01  0.33883614098E-01  0.51100000000E-03 0.  1.
</event>
<event>
 8    1  0.1093753E+005  0.1043930E+01  0.7957747E-01            NaN
         13   -1    0    0    0    0  0.00000000000E+00  0.00000000000E+00  0.74505805969E-08  0.10566000000E+00  0.10566000000E+00 0. -1.
     999900   -1    0    0    0    0 -0.00000000000E+00 -0.00000000000E+00 -0.74505805969E-08  0.93827000000E+00  0.93827000000E+00 0.  1.
     999902    2    1    2    0    0  0.22984528954E-01 -0.68753100600E-02 -0.25217348969E-02  0.10198070316E+01  0.10195216839E+01 0.  0.
     999903    2    3    3    0    0 -0.99448043185E-01 -0.76444688214E-01 -0.18709914315E-01  0.12846439808E+00  0.20477720356E-01 0.  0.
         14    1    1    2    0    0 -0.22984528954E-01  0.68753100600E-02  0.25217348969E-02  0.24122968444E-01  0.00000000000E+00 0. -1.
     999901    1    3    3    0    0  0.12243257214E+00  0.69569378154E-01  0.16188179418E-01  0.89134263348E+00  0.88000000000E+00 0. -1.
        -11    1    4    4    0    0 -0.27496956360E-01 -0.10326670921E-01 -0.43148391234E-02  0.29691778306E-01  0.51100000000E-03 0. -1.
         11    1    4    4    0    0 -0.71951086825E-01 -0.66118017294E-01 -0.14395075192E-01  0.98772619774E-01  0.51100000000E-03 0.  1.
</event>
<event>
 8    1  0.1093753E+005  0.1043930E+01  0.7957747E-01            NaN
         13   -1    0    0    0    0  0.00000000000E+00  0.00000000000E+00  0.74505805969E-08  0.10566000000E+00  0.10566000000E+00 0.  1.
     999900   -1    0    0    0    0 -0.00000000000E+00 -0.00000000000E+00 -0.74505805969E-08  0.93827000000E+00  0.93827000000E+00 0. -1.
     999902    2    1    2    0    0  0.96463030998E-02 -0.17122874101E-01  0.12295357466E-01  0.10207476835E+01  0.10204844015E+01 0.  0.
     999903    2    3    3    0    0 -0.30450842877E-01 -0.83801518190E-01  0.96584846391E-01  0.13330273278E+00  0.22159371194E-01 0.  0.
         14    1    1    2    0    0 -0.96463030998E-02  0.17122874101E-01 -0.12295357466E-01  0.23182316455E-01  0.00000000000E+00 0. -1.
     999901    1    3    3    0    0  0.40097145977E-01  0.66678644089E-01 -0.84289488925E-01  0.88744495076E+00  0.88000000000E+00 0. -1.
        -11    1    4    4    0    0 -0.16110077269E-01 -0.30539496961E-01  0.23636610170E-01  0.41846695516E-01  0.51100000000E-03 0.  1.
         11    1    4    4    0    0 -0.14340765608E-01 -0.53262021229E-01  0.72948236221E-01  0.91456037266E-01  0.51100000000E-03 0. -1.
</event>
<event>
 8    1  0.1093753E+005  0.1043930E+01  0.7957747E-01            NaN
         13   -1    0    0    0    0  0.00000000000E+00  0.00000000000E+00  0.74505805969E-08  0.10566000000E+00  0.10566000000E+00 0.  1.
     999900   -1    0    0    0    0 -0.00000000000E+00 -0.00000000000E+00 -0.74505805969E-08  0.93827000000E+00  0.93827000000E+00 0.  1.
     999902    2    1    2    0    0 -0.50749793043E-02  0.17449415744E-01 -0.16619371914E-01  0.10193039762E+01  0.10190064548E+01 0.  0.
     999903    2    3    3    0    0  0.59411438803E-01 -0.81722370172E-01  0.71649742025E-01  0.12701199613E+00  0.28108660266E-01 0.  0.
         14    1    1    2    0    0  0.50749793043E-02 -0.17449415744E-01  0.16619371914E-01  0.24626023787E-01  0.00000000000E+00 0.  1.
     999901    1    3    3    0    0 -0.64486418108E-01  0.99171785916E-01 -0.88269113939E-01  0.89229198008E+00  0.88000000000E+00 0.  1.
        -11    1    4    4    0    0  0.24619069299E-01 -0.24806054578E-01  0.10448319563E-01  0.36481055625E-01  0.51100000000E-03 0. -1.
         11    1    4    4    0    0  0.34792369505E-01 -0.56916315594E-01  0.61201422463E-01  0.90530940507E-01  0.51100000000E-03 0.  1.
</event>
<event>
 8    1  0.1093753E+005  0.1043930E+01  0.7957747E-01            NaN
         13   -1    0    0    0    0  0.00000000000E+00  0.00000000000E+00  0.74505805969E-08  0.10566000000E+00  0.10566000000E+00 0.  1.
     999900   -1    0    0    0    0 -0.00000000000E+00 -0.00000000000E+00 -0.74505805969E-08  0.93827000000E+00  0.93827000000E+00 0. -1.
     999902    2    1    2    0    0 -0.71345927586E-02  0.21051096922E-01 -0.58068579519E-02  0.10209567396E+01  0.10206982382E+01 0.  0.
     999903    2    3    3    0    0 -0.52320841262E-01 -0.64151268334E-01  0.97700718859E-01  0.12965709380E+00  0.20314424608E-01 0.  0.
         14    1    1    2    0    0  0.71345927586E-02 -0.21051096922E-01  0.58068579519E-02  0.22973260429E-01  0.00000000000E+00 0.  1.
     999901    1    3    3    0    0  0.45186248503E-01  0.85202365257E-01 -0.10350757681E+00  0.89129964577E+00  0.88000000000E+00 0. -1.
        -11    1    4    4    0    0 -0.17282391539E-01 -0.33326302339E-01  0.53640013971E-01  0.65473931490E-01  0.51100000000E-03 0. -1.
         11    1    4    4    0    0 -0.35038449723E-01 -0.30824965996E-01  0.44060704888E-01  0.64183162308E-01  0.51100000000E-03 0.  1.
</event>
<event>
 8    1  0.1093753E+005  0.1043930E+01  0.7957747E-01            NaN
         13   -1    0    0    0    0  0.00000000000E+00  0.00000000000E+00  0.74505805969E-08  0.10566000000E+00  0.10566000000E+00 0. -1.
     999900   -1    0    0    0    0 -0.00000000000E+00 -0.00000000000E+00 -0.74505805969E-08  0.93827000000E+00  0.93827000000E+00 0.  1.
     999902    2    1    2    0    0 -0.75612915687E-02 -0.20735992588E-01 -0.42267815310E-02  0.10214573455E+01  0.10212101098E+01 0.  0.
     999903    2    3    3    0    0 -0.83875586517E-01 -0.86922448306E-01 -0.54898842837E-01  0.13423010496E+00  0.20327619135E-01 0.  0.
         14    1    1    2    0    0  0.75612915687E-02  0.20735992588E-01  0.42267815310E-02  0.22472654514E-01  0.00000000000E+00 0.  1.
     999901    1    3    3    0    0  0.76314294948E-01  0.66186455718E-01  0.50672061306E-01  0.88722724053E+00  0.88000000000E+00 0.  1.
        -11    1    4    4    0    0 -0.47406341376E-01 -0.34544803248E-01 -0.26896904444E-01  0.64532233990E-01  0.51100000000E-03 0.  1.
         11    1    4    4    0    0 -0.36469245141E-01 -0.52377645058E-01 -0.28001938393E-01  0.69697870970E-01  0.51100000000E-03 0. -1.
</event>
<event>
 8    1  0.1093753E+005  0.1043930E+01  0.7957747E-01            NaN
         13   -1    0    0    0    0  0.00000000000E+00  0.00000000000E+00  0.74505805969E-08  0.10566000000E+00  0.10566000000E+00 0.  1.
     999900   -1    0    0    0    0 -0.00000000000E+00 -0.00000000000E+00 -0.74505805969E-08  0.93827000000E+00  0.93827000000E+00 0. -1.
     999902    2    1    2    0    0 -0.19239429062E-01  0.11853742256E-01  0.56020420002E-02  0.10206480389E+01  0.10203824625E+01 0.  0.
     999903    2    3    3    0    0 -0.12555493103E-01  0.19711693675E-01 -0.12675585460E+00  0.13069015500E+00  0.21602746670E-01 0.  0.
         14    1    1    2    0    0  0.19239429062E-01 -0.11853742256E-01 -0.56020420002E-02  0.23281961057E-01  0.00000000000E+00 0. -1.
     999901    1    3    3    0    0 -0.66839359582E-02 -0.78579514186E-02  0.13235789660E+00  0.88995788394E+00  0.88000000000E+00 0.  1.
        -11    1    4    4    0    0 -0.15339191469E-01  0.43780028289E-02 -0.72643079007E-01  0.74375639508E-01  0.51100000000E-03 0.  1.
         11    1    4    4    0    0  0.27836983651E-02  0.15333690846E-01 -0.54112775593E-01  0.56314515491E-01  0.51100000000E-03 0. -1.
</event>
<event>
 8    1  0.1093753E+005  0.1043930E+01  0.7957747E-01            NaN
         13   -1    0    0    0    0  0.00000000000E+00  0.00000000000E+00  0.74505805969E-08  0.10566000000E+00  0.10566000000E+00 0.  1.
     999900   -1    0    0    0    0 -0.00000000000E+00 -0.00000000000E+00 -0.74505805969E-08  0.93827000000E+00  0.93827000000E+00 0. -1.
     999902    2    1    2    0    0  0.76892279874E-02 -0.14334061684E-01 -0.17685533502E-01  0.10199015243E+01  0.10196184343E+01 0.  0.
     999903    2    3    3    0    0  0.11633049668E+00 -0.19859260567E-01  0.51807623042E-01  0.13048443880E+00  0.20371162854E-01 0.  0.
         14    1    1    2    0    0 -0.76892279874E-02  0.14334061684E-01  0.17685533502E-01  0.24028475746E-01  0.00000000000E+00 0.  1.
     999901    1    3    3    0    0 -0.10864126869E+00  0.55251988838E-02 -0.69493156544E-01  0.88941708545E+00  0.88000000000E+00 0. -1.
        -11    1    4    4    0    0  0.70211219323E-01 -0.27804723758E-02  0.25849911511E-01  0.74872060153E-01  0.51100000000E-03 0.  1.
         11    1    4    4    0    0  0.46119277359E-01 -0.17078788192E-01  0.25957711531E-01  0.55612378650E-01  0.51100000000E-03 0. -1.
</event>
<event>
 8    1  0.1093753E+005  0.1043930E+01  0.7957747E-01            NaN
         13   -1    0    0    0    0  0.00000000000E+00  0.00000000000E+00  0.74505805969E-08  0.10566000000E+00  0.10566000000E+00 0. -1.
     999900   -1    0    0    0    0 -0.00000000000E+00 -0.00000000000E+00 -0.74505805969E-08  0.93827000000E+00  0.93827000000E+00 0.  1.
     999902    2    1    2    0    0  0.15481840420E-02 -0.10115585744E-01 -0.21459667343E-01  0.10201552388E+01  0.10198781652E+01 0.  0.
     999903    2    3    3    0    0  0.13896991707E-01  0.17867489142E-02 -0.13083827989E+00  0.13321790192E+00  0.20785453039E-01 0.  0.
         14    1    1    2    0    0 -0.15481840420E-02  0.10115585744E-01  0.21459667343E-01  0.23774761224E-01  0.00000000000E+00 0. -1.
     999901    1    3    3    0    0 -0.12348807665E-01 -0.11902334658E-01  0.10937861255E+00  0.88693733685E+00  0.88000000000E+00 0. -1.
        -11    1    4    4    0    0 -0.22686990092E-02 -0.48403262920E-03 -0.14081887673E-02  0.27614125706E-02  0.51100000000E-03 0.  1.
         11    1    4    4    0    0  0.16165690717E-01  0.22707815434E-02 -0.12943009112E+00  0.13045648935E+00  0.51100000000E-03 0. -1.
</event>
<event>
 8    1  0.1093753E+005  0.1043930E+01  0.7957747E-01            NaN
         13   -1    0    0    0    0  0.00000000000E+00  0.00000000000E+00  0.74505805969E-08  0.10566000000E+00  0.10566000000E+00 0. -1.
     999900   -1    0    0    0    0 -0.00000000000E+00 -0.00000000000E+00 -0.74505805969E-08  0.93827000000E+00  0.93827000000E+00 0.  1.
     999902    2    1    2    0    0  0.66030428106E-02 -0.22365490883E-01 -0.90842997787E-03  0.10205924637E+01  0.10203256031E+01 0.  0.
     999903    2    3    3    0    0  0.99051494889E-01 -0.63779375838E-01 -0.58019627481E-01  0.13294190459E+00  0.20694574194E-01 0.  0.
         14    1    1    2    0    0 -0.66030428106E-02  0.22365490883E-01  0.90842997787E-03  0.23337536328E-01  0.00000000000E+00 0.  1.
     999901    1    3    3    0    0 -0.92448452078E-01  0.41413884955E-01  0.57111197503E-01  0.88765055908E+00  0.88000000000E+00 0.  1.
        -11    1    4    4    0    0  0.17242606876E-01 -0.18258010221E-01 -0.59473797868E-02  0.25812688283E-01  0.51100000000E-03 0.  1.
         11    1    4    4    0    0  0.81808888013E-01 -0.45521365618E-01 -0.52072247694E-01  0.10712921631E+00  0.51100000000E-03 0. -1.
</event>
<event>
 8    1  0.1093753E+005  0.1043930E+01  0.7957747E-01            NaN
         13   -1    0    0    0    0  0.00000000000E+00  0.00000000000E+00  0.74505805969E-08  0.10566000000E+00  0.10566000000E+00 0. -1.
     999900   -1    0    0    0    0 -0.00000000000E+00 -0.00000000000E+00 -0.74505805969E-08  0.93827000000E+00  0.93827000000E+00 0.  1.
     999902    2    1    2    0    0  0.88492613556E-02  0.20412714337E-01  0.58562824148E-02  0.10209238187E+01  0.10206645675E+01 0.  0.
     999903    2    3    3    0    0  0.10297979965E+00  0.79729721914E-01  0.22873094838E-01  0.13375492977E+00  0.20137901538E-01 0.  0.
         14    1    1    2    0    0 -0.88492613556E-02 -0.20412714337E-01 -0.58562824148E-02  0.23006181276E-01  0.00000000000E+00 0.  1.
     999901    1    3    3    0    0 -0.94130538290E-01 -0.59317007577E-01 -0.17016812423E-01  0.88716888896E+00  0.88000000000E+00 0.  1.
        -11    1    4    4    0    0  0.65859808528E-01  0.61882778616E-01  0.19290827093E-01  0.92408818841E-01  0.51100000000E-03 0. -1.
         11    1    4    4    0    0  0.37119991117E-01  0.17846943298E-01  0.35822677448E-02  0.41346110928E-01  0.51100000000E-03 0.  1.
</event>
<event>
 8    1  0.1093753E+005  0.1043930E+01  0.7957747E-01            NaN
         13   -1    0    0    0    0  0.00000000000E+00  0.00000000000E+00  0.74505805969E-08  0.10566000000E+00  0.10566000000E+00 0. -1.
     999900   -1    0    0    0    0 -0.00000000000E+00 -0.00000000000E+00 -0.74505805969E-08  0.93827000000E+00  0.93827000000E+00 0. -1.
     999902    2    1    2    0    0  0.12667839374E-01  0.17019697817E-01  0.10317063640E-01  0.10203379236E+01  0.10200651412E+01 0.  0.
     999903    2    3    3    0    0  0.33567947671E-01  0.12666628499E+00  0.13558371181E-01  0.13328116401E+00  0.20220889871E-01 0.  0.
         14    1    1    2    0    0 -0.12667839374E-01 -0.17019697817E-01 -0.10317063640E-01  0.23592076431E-01  0.00000000000E+00 0. -1.
     999901    1    3    3    0    0 -0.20900108297E-01 -0.10964658717E+00 -0.32413075403E-02  0.88705675956E+00  0.88000000000E+00 0. -1.
        -11    1    4    4    0    0  0.18179314690E-01  0.38516699821E-01 -0.10770476980E-02  0.42608036806E-01  0.51100000000E-03 0.  1.
         11    1    4    4    0    0  0.15388632981E-01  0.88149585167E-01  0.14635418879E-01  0.90673127204E-01  0.51100000000E-03 0. -1.
</event>
<event>
 8    1  0.1093753E+005  0.1043930E+01  0.7957747E-01            NaN
         13   -1    0    0    0    0  0.00000000000E+00  0.00000000000E+00  0.74505805969E-08  0.10566000000E+00  0.10566000000E+00 0. -1.
     999900   -1    0    0    0    0 -0.00000000000E+00 -0.00000000000E+00 -0.74505805969E-08  0.93827000000E+00  0.93827000000E+00 0. -1.
     999902    2    1    2    0    0 -0.34246670990E-02  0.15038401959E-01  0.18228206697E-01  0.10200521986E+01  0.10197726897E+01 0.  0.
     999903    2    3    3    0    0  0.49117801115E-01 -0.86615923520E-01  0.81781426669E-01  0.13037061256E+00  0.19834774427E-01 0.  0.
         14    1    1    2    0    0  0.34246670990E-02 -0.15038401959E-01 -0.18228206697E-01  0.23877801356E-01  0.00000000000E+00 0.  1.
     999901    1    3    3    0    0 -0.52542468214E-01  0.10165432548E+00 -0.63553219972E-01  0.88968158609E+00  0.88000000000E+00 0. -1.
        -11    1    4    4    0    0  0.11838192428E-01 -0.18436879522E-01  0.29347048655E-01  0.36627472098E-01  0.51100000000E-03 0. -1.
         11    1    4    4    0    0  0.37279608687E-01 -0.68179043998E-01  0.52434378014E-01  0.93743140459E-01  0.51100000000E-03 0.  1.
</event>
<event>
 8    1  0.1093753E+005  0.1043930E+01  0.7957747E-01            NaN
         13   -1    0    0    0    0  0.00000000000E+00  0.00000000000E+00  0.74505805969E-08  0.10566000000E+00  0.10566000000E+00 0. -1.
     999900   -1    0    0    0    0 -0.00000000000E+00 -0.00000000000E+00 -0.74505805969E-08  0.93827000000E+00  0.93827000000E+00 0.  1.
     999902    2    1    2    0    0 -0.19321860898E-01 -0.95057600097E-02  0.10567377343E-01  0.10199432694E+01  0.10196611739E+01 0.  0.
     999903    2    3    3    0    0  0.14657874450E-01 -0.95676968432E-01 -0.84352676651E-01  0.13000511635E+00  0.20421083376E-01 0.  0.
         14    1    1    2    0    0  0.19321860898E-01  0.95057600097E-02 -0.10567377343E-01  0.23986730620E-01  0.00000000000E+00 0. -1.
     999901    1    3    3    0    0 -0.33979735348E-01  0.86171208422E-01  0.94920053994E-01  0.88993815303E+00  0.88000000000E+00 0. -1.
        -11    1    4    4    0    0 -0.29041184055E-02 -0.46710394957E-01 -0.37072566003E-01  0.59707044574E-01  0.51100000000E-03 0.  1.
         11    1    4    4    0    0  0.17561992855E-01 -0.48966573475E-01 -0.47280110649E-01  0.70298071772E-01  0.51100000000E-03 0. -1.
</event>
<event>
 8    1  0.1093753E+005  0.1043930E+01  0.7957747E-01            NaN
         13   -1    0    0    0    0  0.00000000000E+00  0.00000000000E+00  0.74505805969E-08  0.10566000000E+00  0.10566000000E+00 0. -1.
     999900   -1    0    0    0    0 -0.00000000000E+00 -0.00000000000E+00 -0.74505805969E-08  0.93827000000E+00  0.93827000000E+00 0.  1.
     999902    2    1    2    0    0 -0.15163535093E-01  0.94228063141E-02  0.24188185923E-01  0.10138668928E+01  0.10134210803E+01 0.  0.
     999903    2    3    3    0    0  0.90961310423E-01 -0.40567659564E-01  0.67100668453E-01  0.12504575745E+00  0.34846043580E-01 0.  0.
         14    1    1    2    0    0  0.15163535093E-01 -0.94228063141E-02 -0.24188185923E-01  0.30063107185E-01  0.00000000000E+00 0.  1.
     999901    1    3    3    0    0 -0.10612484552E+00  0.49990465878E-01 -0.42912482529E-01  0.88882113536E+00  0.88000000000E+00 0.  1.
        -11    1    4    4    0    0  0.22862561763E-01 -0.22588376375E-01  0.35372026190E-01  0.47795113092E-01  0.51100000000E-03 0. -1.
         11    1    4    4    0    0  0.68098748660E-01 -0.17979283189E-01  0.31728642262E-01  0.77250644358E-01  0.51100000000E-03 0.  1.
</event>
<event>
 8    1  0.1093753E+005  0.1043930E+01  0.7957747E-01            NaN
         13   -1    0    0    0    0  0.00000000000E+00  0.00000000000E+00  0.74505805969E-08  0.10566000000E+00  0.10566000000E+00 0.  1.
     999900   -1    0    0    0    0 -0.00000000000E+00 -0.00000000000E+00 -0.74505805969E-08  0.93827000000E+00  0.93827000000E+00 0. -1.
     999902    2    1    2    0    0  0.13376994624E-01  0.66273359075E-02 -0.18394469647E-01  0.10202398738E+01  0.10199647925E+01 0.  0.
     999903    2    3    3    0    0 -0.35728676479E-01  0.89492865501E-01 -0.88189762602E-01  0.13223680744E+00  0.20582218408E-01 0.  0.
         14    1    1    2    0    0 -0.13376994624E-01 -0.66273359075E-02  0.18394469647E-01  0.23690126213E-01  0.00000000000E+00 0.  1.
     999901    1    3    3    0    0  0.49105671103E-01 -0.82865529594E-01  0.69795292955E-01  0.88800306635E+00  0.88000000000E+00 0.  1.
        -11    1    4    4    0    0 -0.24037012918E-01  0.57144232609E-01 -0.43023914772E-01  0.75462306311E-01  0.51100000000E-03 0.  1.
         11    1    4    4    0    0 -0.11691663561E-01  0.32348632893E-01 -0.45165847830E-01  0.56774501126E-01  0.51100000000E-03 0. -1.
</event>
<event>
 8    1  0.1093753E+005  0.1043930E+01  0.7957747E-01            NaN
         13   -1    0    0    0    0  0.00000000000E+00  0.00000000000E+00  0.74505805969E-08  0.10566000000E+00  0.10566000000E+00 0. -1.
     999900   -1    0    0    0    0 -0.00000000000E+00 -0.00000000000E+00 -0.74505805969E-08  0.93827000000E+00  0.93827000000E+00 0. -1.
     999902    2    1    2    0    0 -0.20604643796E-01  0.11197665317E-01  0.16792567332E-02  0.10204191736E+01  0.10201482887E+01 0.  0.
     999903    2    3    3    0    0 -0.39553748902E-01 -0.12157272783E+00 -0.14537830269E-01  0.13011021611E+00  0.19310427826E-01 0.  0.
         14    1    1    2    0    0  0.20604643796E-01 -0.11197665317E-01 -0.16792567332E-02  0.23510826393E-01  0.00000000000E+00 0.  1.
     999901    1    3    3    0    0  0.18949105106E-01  0.13277039315E+00  0.16217087002E-01  0.89030895749E+00  0.88000000000E+00 0.  1.
        -11    1    4    4    0    0 -0.34064347323E-01 -0.94703026499E-01 -0.18699415407E-01  0.10236685130E+00  0.51100000000E-03 0. -1.
         11    1    4    4    0    0 -0.54894015789E-02 -0.26869701336E-01  0.41615851381E-02  0.27743364818E-01  0.51100000000E-03 0.  1.
</event>
<event>
 8    1  0.1093753E+005  0.1043930E+01  0.7957747E-01            NaN
         13   -1    0    0    0    0  0.00000000000E+00  0.00000000000E+00  0.74505805969E-08  0.10566000000E+00  0.10566000000E+00 0. -1.
     999900   -1    0    0    0    0 -0.00000000000E+00 -0.00000000000E+00 -0.74505805969E-08  0.93827000000E+00  0.93827000000E+00 0. -1.
     999902    2    1    2    0    0  0.11753026634E-01 -0.15815976602E-02  0.20723558437E-01  0.10200532129E+01  0.10197737280E+01 0.  0.
     999903    2    3    3    0    0  0.10523002623E-02  0.12638842858E+00 -0.21356325375E-01  0.12973779142E+00  0.20016485120E-01 0.  0.
         14    1    1    2    0    0 -0.11753026634E-01  0.15815976602E-02 -0.20723558437E-01  0.23876787064E-01  0.00000000000E+00 0.  1.
     999901    1    3    3    0    0  0.10700726372E-01 -0.12797002624E+00  0.42079883812E-01  0.89031542151E+00  0.88000000000E+00 0. -1.
        -11    1    4    4    0    0  0.97697932058E-02  0.42152324488E-01 -0.65481692750E-02  0.43765362570E-01  0.51100000000E-03 0.  1.
         11    1    4    4    0    0 -0.87174929435E-02  0.84236104088E-01 -0.14808156100E-01  0.85972428855E-01  0.51100000000E-03 0. -1.
</event>
<event>
 7    1  0.1093753E+005  0.1043930E+01  0.7957747E-01            NaN
         13   -1    0    0    0    0  0.00000000000E+00  0.00000000000E+00  0.74505805969E-08  0.10566000000E+00  0.10566000000E+00 0.  1.
     999900   -1    0    0    0    0 -0.00000000000E+00 -0.00000000000E+00 -0.74505805969E-08  0.93827000000E+00  0.93827000000E+00 0.  1.
     999902    2    1    2    0    0  0.10196891602E-01 -0.57608642468E-02 -0.22891538231E-01  0.10182164495E+01  0.10178917189E+01 0.  0.
         14    1    1    2    0    0 -0.10196891602E-01  0.57608642468E-02  0.22891538231E-01  0.25713550471E-01  0.00000000000E+00 0.  1.
     999901    1    3    3    0    0  0.10626828397E+00 -0.26756620739E-01 -0.93580193071E-01  0.89172087419E+00  0.88000000000E+00 0. -1.
        -11    1    3    3    0    0 -0.21258258943E-01  0.38741234827E-02  0.36623909457E-01  0.42526394991E-01  0.51100000000E-03 0.  1.
         11    1    3    3    0    0 -0.74813133423E-01  0.17121633009E-01  0.34064745383E-01  0.83969180349E-01  0.51100000000E-03 0. -1.
</event>
<event>
 8    1  0.1093753E+005  0.1043930E+01  0.7957747E-01            NaN
         13   -1    0    0    0    0  0.00000000000E+00  0.00000000000E+00  0.74505805969E-08  0.10566000000E+00  0.10566000000E+00 0.  1.
     999900   -1    0    0    0    0 -0.00000000000E+00 -0.00000000000E+00 -0.74505805969E-08  0.93827000000E+00  0.93827000000E+00 0. -1.
     999902    2    1    2    0    0  0.42576358852E-02  0.17047234910E-03  0.23551959960E-01  0.10199956869E+01  0.10197148376E+01 0.  0.
     999903    2    3    3    0    0  0.36288105160E-01 -0.75286280053E-01  0.10117168807E+00  0.13278404666E+00  0.20274171721E-01 0.  0.
         14    1    1    2    0    0 -0.42576358852E-02 -0.17047234910E-03 -0.23551959960E-01  0.23934313069E-01  0.00000000000E+00 0. -1.
     999901    1    3    3    0    0 -0.32030469275E-01  0.75456752402E-01 -0.77619728112E-01  0.88721164027E+00  0.88000000000E+00 0. -1.
        -11    1    4    4    0    0  0.20466230422E-01 -0.23472991424E-01  0.45145167048E-01  0.54847015806E-01  0.51100000000E-03 0.  1.
         11    1    4    4    0    0  0.15821874738E-01 -0.51813288629E-01  0.56026521024E-01  0.77937030851E-01  0.51100000000E-03 0. -1.
</event>
<event>
 8    1  0.1093753E+005  0.1043930E+01  0.7957747E-01            NaN
         13   -1    0    0    0    0  0.00000000000E+00  0.00000000000E+00  0.74505805969E-08  0.10566000000E+00  0.10566000000E+00 0.  1.
     999900   -1    0    0    0    0 -0.00000000000E+00 -0.00000000000E+00 -0.74505805969E-08  0.93827000000E+00  0.93827000000E+00 0.  1.
     999902    2    1    2    0    0 -0.79683152629E-02  0.17011916140E-01 -0.19642076898E-01  0.10167507704E+01  0.10163874352E+01 0.  0.
     999903    2    3    3    0    0 -0.88341961298E-01  0.61606084176E-01 -0.71270716161E-01  0.13045844884E+00  0.18446684191E-01 0.  0.
         14    1    1    2    0    0  0.79683152629E-02 -0.17011916140E-01  0.19642076898E-01  0.27179229638E-01  0.00000000000E+00 0. -1.
     999901    1    3    3    0    0  0.80373646035E-01 -0.44594168036E-01  0.51628639263E-01  0.88629232152E+00  0.88000000000E+00 0.  1.
        -11    1    4    4    0    0 -0.17371678575E-01  0.10747507904E-01 -0.22709241963E-01  0.30549221499E-01  0.51100000000E-03 0. -1.
         11    1    4    4    0    0 -0.70970282723E-01  0.50858576272E-01 -0.48561474198E-01  0.99909227339E-01  0.51100000000E-03 0.  1.
</event>
<event>
 8    1  0.1093753E+005  0.1043930E+01  0.7957747E-01            NaN
         13   -1    0    0    0    0  0.00000000000E+00  0.00000000000E+00  0.74505805969E-08  0.10566000000E+00  0.10566000000E+00 0. -1.
     999900   -1    0    0    0    0 -0.00000000000E+00 -0.00000000000E+00 -0.74505805969E-08  0.93827000000E+00  0.93827000000E+00 0. -1.
     999902    2    1    2    0    0  0.17230795580E-01  0.87558988716E-02 -0.11625462486E-01  0.10213752342E+01  0.10211261683E+01 0.  0.
     999903    2    3    3    0    0  0.59215895564E-01 -0.11511000861E+00 -0.13624490256E-01  0.13170703328E+00  0.20106703140E-01 0.  0.
         14    1    1    2    0    0 -0.17230795580E-01 -0.87558988716E-02  0.11625462486E-01  0.22554765780E-01  0.00000000000E+00 0.  1.
     999901    1    3    3    0    0 -0.41985099984E-01  0.12386590748E+00  0.19990277702E-02  0.88966820094E+00  0.88000000000E+00 0. -1.
        -11    1    4    4    0    0  0.44803090195E-01 -0.70837149534E-01 -0.14874115698E-01  0.85127663447E-01  0.51100000000E-03 0.  1.
         11    1    4    4    0    0  0.14412805369E-01 -0.44272859073E-01  0.12496254421E-02  0.46579369831E-01  0.51100000000E-03 0. -1.
</event>
<event>
 8    1  0.1093753E+005  0.1043930E+01  0.7957747E-01            NaN
         13   -1    0    0    0    0  0.00000000000E+00  0.00000000000E+00  0.74505805969E-08  0.10566000000E+00  0.10566000000E+00 0. -1.
     999900   -1    0    0    0    0 -0.00000000000E+00 -0.00000000000E+00 -0.74505805969E-08  0.93827000000E+00  0.93827000000E+00 0. -1.
     999902    2    1    2    0    0  0.14316713894E-01 -0.22344597162E-01  0.74671349193E-03  0.10173818004E+01  0.10170353588E+01 0.  0.
     999903    2    3    3    0    0  0.13790004353E-01 -0.59839671753E-01 -0.11205299057E+00  0.12938972205E+00  0.20368528189E-01 0.  0.
         14    1    1    2    0    0 -0.14316713894E-01  0.22344597162E-01 -0.74671349193E-03  0.26548199564E-01  0.00000000000E+00 0.  1.
     999901    1    3    3    0    0  0.52670954060E-03  0.37495074591E-01  0.11279970406E+00  0.88799207839E+00  0.88000000000E+00 0.  1.
        -11    1    4    4    0    0  0.13682718851E-01 -0.30367927566E-01 -0.43675335710E-01  0.54929262604E-01  0.51100000000E-03 0. -1.
         11    1    4    4    0    0  0.10728550203E-03 -0.29471744187E-01 -0.68377654860E-01  0.74460459445E-01  0.51100000000E-03 0.  1.
</event>
<event>
 8    1  0.1093753E+005  0.1043930E+01  0.7957747E-01            NaN
         13   -1    0    0    0    0  0.00000000000E+00  0.00000000000E+00  0.74505805969E-08  0.10566000000E+00  0.10566000000E+00 0. -1.
     999900   -1    0    0    0    0 -0.00000000000E+00 -0.00000000000E+00 -0.74505805969E-08  0.93827000000E+00  0.93827000000E+00 0.  1.
     999902    2    1    2    0    0  0.23256631605E-01  0.42064631755E-02  0.30741262828E-02  0.10200969243E+01  0.10198184738E+01 0.  0.
     999903    2    3    3    0    0 -0.11559886364E+00  0.40091152367E-01 -0.31073990802E-01  0.12783314412E+00  0.20132611777E-01 0.  0.
         14    1    1    2    0    0 -0.23256631605E-01 -0.42064631755E-02 -0.30741262828E-02  0.23833075724E-01  0.00000000000E+00 0.  1.
     999901    1    3    3    0    0  0.13885549525E+00 -0.35884689191E-01  0.34148117085E-01  0.89226378016E+00  0.88000000000E+00 0. -1.
        -11    1    4    4    0    0 -0.10026266474E+00  0.32973001000E-01 -0.33520938895E-01  0.11074175004E+00  0.51100000000E-03 0.  1.
         11    1    4    4    0    0 -0.15336198906E-01  0.71181513672E-02  0.24469480926E-02  0.17091394084E-01  0.51100000000E-03 0. -1.
</event>
<event>
 8    1  0.1093753E+005  0.1043930E+01  0.7957747E-01            NaN
         13   -1    0    0    0    0  0.00000000000E+00  0.00000000000E+00  0.74505805969E-08  0.10566000000E+00  0.10566000000E+00 0. -1.
     999900   -1    0    0    0    0 -0.00000000000E+00 -0.00000000000E+00 -0.74505805969E-08  0.93827000000E+00  0.93827000000E+00 0.  1.
     999902    2    1    2    0    0  0.24031734168E-01 -0.30362126987E-02 -0.23740749790E-02  0.10195911614E+01  0.10193006216E+01 0.  0.
     999903    2    3    3    0    0  0.46087069127E-01  0.10861826261E+00  0.51997855616E-01  0.13059764816E+00  0.20737015330E-01 0.  0.
         14    1    1    2    0    0 -0.24031734168E-01  0.30362126987E-02  0.23740749790E-02  0.24338838647E-01  0.00000000000E+00 0. -1.
     999901    1    3    3    0    0 -0.22055334959E-01 -0.11165447531E+00 -0.54371930595E-01  0.88899351319E+00  0.88000000000E+00 0. -1.
        -11    1    4    4    0    0  0.65531359029E-02  0.24825612757E-01  0.20088822717E-01  0.32604854823E-01  0.51100000000E-03 0.  1.
         11    1    4    4    0    0  0.39533933224E-01  0.83792649851E-01  0.31909032899E-01  0.97992793341E-01  0.51100000000E-03 0. -1.
</event>
<event>
 8    1  0.1093753E+005  0.1043930E+01  0.7957747E-01            NaN
         13   -1    0    0    0    0  0.00000000000E+00  0.00000000000E+00  0.74505805969E-08  0.10566000000E+00  0.10566000000E+00 0. -1.
     999900   -1    0    0    0    0 -0.00000000000E+00 -0.00000000000E+00 -0.74505805969E-08  0.93827000000E+00  0.93827000000E+00 0. -1.
     999902    2    1    2    0    0 -0.12008540721E-02  0.21555425936E-01 -0.90349328705E-02  0.10205268282E+01  0.10202584470E+01 0.  0.
     999903    2    3    3    0    0 -0.28887754060E-01  0.94867183702E-01 -0.87253305944E-01  0.13358867245E+00  0.19962693479E-01 0.  0.
         14    1    1    2    0    0  0.12008540721E-02 -0.21555425936E-01  0.90349328705E-02  0.23403171789E-01  0.00000000000E+00 0. -1.
     999901    1    3    3    0    0  0.27686899988E-01 -0.73311757766E-01  0.78218373073E-01  0.88693815576E+00  0.88000000000E+00 0.  1.
        -11    1    4    4    0    0 -0.95654413914E-02  0.41170704678E-01 -0.24890021131E-01  0.49054040258E-01  0.51100000000E-03 0.  1.
         11    1    4    4    0    0 -0.19322312668E-01  0.53696479024E-01 -0.62363284813E-01  0.84534632193E-01  0.51100000000E-03 0. -1.
</event>
<event>
 8    1  0.1093753E+005  0.1043930E+01  0.7957747E-01            NaN
         13   -1    0    0    0    0  0.00000000000E+00  0.00000000000E+00  0.74505805969E-08  0.10566000000E+00  0.10566000000E+00 0. -1.
     999900   -1    0    0    0    0 -0.00000000000E+00 -0.00000000000E+00 -0.74505805969E-08  0.93827000000E+00  0.93827000000E+00 0.  1.
     999902    2    1    2    0    0 -0.22345568257E-01  0.14538448632E-02  0.74121698136E-02  0.10203423264E+01  0.10200696470E+01 0.  0.
     999903    2    3    3    0    0  0.11995680030E+00 -0.32284539416E-01  0.24095916471E-01  0.12811668783E+00  0.20033648887E-01 0.  0.
         14    1    1    2    0    0  0.22345568257E-01 -0.14538448632E-02 -0.74121698136E-02  0.23587673623E-01  0.00000000000E+00 0.  1.
     999901    1    3    3    0    0 -0.14230236856E+00  0.33738384279E-01 -0.16683746658E-01  0.89222563854E+00  0.88000000000E+00 0.  1.
        -11    1    4    4    0    0  0.97399265353E-01 -0.32931983611E-01  0.15579504548E-01  0.10399093479E+00  0.51100000000E-03 0. -1.
         11    1    4    4    0    0  0.22557534947E-01  0.64744419515E-03  0.85164119229E-02  0.24125753043E-01  0.51100000000E-03 0.  1.
</event>
<event>
 7    1  0.1093753E+005  0.1043930E+01  0.7957747E-01            NaN
         13   -1    0    0    0    0  0.00000000000E+00  0.00000000000E+00  0.74505805969E-08  0.10566000000E+00  0.10566000000E+00 0.  1.
     999900   -1    0    0    0    0 -0.00000000000E+00 -0.00000000000E+00 -0.74505805969E-08  0.93827000000E+00  0.93827000000E+00 0.  1.
     999903    2    1    2    0    0  0.28498679281E-01  0.79221118219E-01 -0.71007401837E-01  0.11191029370E+00  0.19841936064E-01 0.  0.
         14    1    1    2    0    0  0.17836498847E-01  0.19944066373E-02 -0.36387859010E-01  0.40573324146E-01  0.00000000000E+00 0. -1.
     999901    1    1    2    0    0 -0.46335178128E-01 -0.81215524857E-01  0.10739526085E+00  0.89144638216E+00  0.88000000000E+00 0.  1.
        -11    1    3    3    0    0  0.26098617819E-01  0.78295619336E-01 -0.64034836138E-01  0.10446082146E+00  0.51100000000E-03 0.  1.
         11    1    3    3    0    0  0.24000614624E-02  0.92549888291E-03 -0.69725656993E-02  0.74494722388E-02  0.51100000000E-03 0. -1.
</event>
<event>
 8    1  0.1093753E+005  0.1043930E+01  0.7957747E-01            NaN
         13   -1    0    0    0    0  0.00000000000E+00  0.00000000000E+00  0.74505805969E-08  0.10566000000E+00  0.10566000000E+00 0. -1.
     999900   -1    0    0    0    0 -0.00000000000E+00 -0.00000000000E+00 -0.74505805969E-08  0.93827000000E+00  0.93827000000E+00 0.  1.
     999902    2    1    2    0    0  0.61909546943E-02 -0.47165305689E-02 -0.22517722056E-01  0.10201051939E+01  0.10198269388E+01 0.  0.
     999903    2    3    3    0    0 -0.53393045331E-01 -0.99215000086E-01  0.59917730290E-01  0.12922034295E+00  0.20330496698E-01 0.  0.
         14    1    1    2    0    0 -0.61909546943E-02  0.47165305689E-02  0.22517722056E-01  0.23824806132E-01  0.00000000000E+00 0. -1.
     999901    1    3    3    0    0  0.59584000025E-01  0.94498469517E-01 -0.82435452347E-01  0.89088485092E+00  0.88000000000E+00 0.  1.
        -11    1    4    4    0    0 -0.50266947324E-01 -0.98020003561E-01  0.60657666860E-01  0.12575492341E+00  0.51100000000E-03 0.  1.
         11    1    4    4    0    0 -0.31260980067E-02 -0.11949965246E-02 -0.73993656973E-03  0.34654195371E-02  0.51100000000E-03 0. -1.
</event>
<event>
 8    1  0.1093753E+005  0.1043930E+01  0.7957747E-01            NaN
         13   -1    0    0    0    0  0.00000000000E+00  0.00000000000E+00  0.74505805969E-08  0.10566000000E+00  0.10566000000E+00 0. -1.
     999900   -1    0    0    0    0 -0.00000000000E+00 -0.00000000000E+00 -0.74505805969E-08  0.93827000000E+00  0.93827000000E+00 0.  1.
     999902    2    1    2    0    0 -0.99344868179E-02 -0.12811715588E-01 -0.17631583000E-01  0.10199778226E+01  0.10196965488E+01 0.  0.
     999903    2    3    3    0    0  0.75063153124E-01 -0.96219063848E-01  0.40321088619E-01  0.13006777279E+00  0.19981244394E-01 0.  0.
         14    1    1    2    0    0  0.99344868179E-02  0.12811715588E-01  0.17631583000E-01  0.23952177433E-01  0.00000000000E+00 0. -1.
     999901    1    3    3    0    0 -0.84997639942E-01  0.83407348260E-01 -0.57952671620E-01  0.88991004977E+00  0.88000000000E+00 0. -1.
        -11    1    4    4    0    0  0.11440715325E-01 -0.20224450264E-01  0.15365964600E-01  0.27862023342E-01  0.51100000000E-03 0.  1.
         11    1    4    4    0    0  0.63622437799E-01 -0.75994613585E-01  0.24955124019E-01  0.10220574945E+00  0.51100000000E-03 0. -1.
</event>
<event>
 8    1  0.1093753E+005  0.1043930E+01  0.7957747E-01            NaN
         13   -1    0    0    0    0  0.00000000000E+00  0.00000000000E+00  0.74505805969E-08  0.10566000000E+00  0.10566000000E+00 0.  1.
     999900   -1    0    0    0    0 -0.00000000000E+00 -0.00000000000E+00 -0.74505805969E-08  0.93827000000E+00  0.93827000000E+00 0.  1.
     999902    2    1    2    0    0 -0.16965827698E-03 -0.23516349629E-01  0.75422129975E-03  0.10204009470E+01  0.10201296370E+01 0.  0.
     999903    2    3    3    0    0 -0.12419780921E+00 -0.26940338988E-02 -0.35701419043E-01  0.13071248202E+00  0.19462990637E-01 0.  0.
         14    1    1    2    0    0  0.16965827698E-03  0.23516349629E-01 -0.75422129975E-03  0.23529052969E-01  0.00000000000E+00 0.  1.
     999901    1    3    3    0    0  0.12402815093E+00 -0.20822315731E-01  0.36455640343E-01  0.88968846501E+00  0.88000000000E+00 0. -1.
        -11    1    4    4    0    0 -0.58228736675E-01  0.29187859963E-02 -0.76422260586E-02  0.58802804581E-01  0.51100000000E-03 0.  1.
         11    1    4    4    0    0 -0.65969072532E-01 -0.56128198951E-02 -0.28059192985E-01  0.71909677442E-01  0.51100000000E-03 0. -1.
</event>
<event>
 8    1  0.1093753E+005  0.1043930E+01  0.7957747E-01            NaN
         13   -1    0    0    0    0  0.00000000000E+00  0.00000000000E+00  0.74505805969E-08  0.10566000000E+00  0.10566000000E+00 0.  1.
     999900   -1    0    0    0    0 -0.00000000000E+00 -0.00000000000E+00 -0.74505805969E-08  0.93827000000E+00  0.93827000000E+00 0.  1.
     999902    2    1    2    0    0 -0.45129244498E-02  0.30260253926E-02 -0.19308138351E-01  0.10238718963E+01  0.10236754039E+01 0.  0.
     999903    2    3    3    0    0  0.12560426499E+00 -0.38481100487E-01 -0.92173321697E-02  0.13327931334E+00  0.20522906045E-01 0.  0.
         14    1    1    2    0    0  0.45129244498E-02 -0.30260253926E-02  0.19308138351E-01  0.20058103683E-01  0.00000000000E+00 0.  1.
     999901    1    3    3    0    0 -0.13011718944E+00  0.41507125880E-01 -0.10090806181E-01  0.89059258298E+00  0.88000000000E+00 0. -1.
        -11    1    4    4    0    0  0.55222745937E-01 -0.16124140263E-01  0.61172072294E-02  0.57855171881E-01  0.51100000000E-03 0. -1.
         11    1    4    4    0    0  0.70381519056E-01 -0.22356960224E-01 -0.15334539399E-01  0.75424141458E-01  0.51100000000E-03 0.  1.
</event>
<event>
 8    1  0.1093753E+005  0.1043930E+01  0.7957747E-01            NaN
         13   -1    0    0    0    0  0.00000000000E+00  0.00000000000E+00  0.74505805969E-08  0.10566000000E+00  0.10566000000E+00 0. -1.
     999900   -1    0    0    0    0 -0.00000000000E+00 -0.00000000000E+00 -0.74505805969E-08  0.93827000000E+00  0.93827000000E+00 0. -1.
     999902    2    1    2    0    0 -0.23064571610E-01 -0.61967518672E-02  0.58181231149E-02  0.10193490164E+01  0.10190525956E+01 0.  0.
     999903    2    3    3    0    0 -0.71589299056E-01  0.85179562454E-01 -0.64867745066E-01  0.13047288784E+00  0.20851007474E-01 0.  0.
         14    1    1    2    0    0  0.23064571610E-01  0.61967518672E-02 -0.58181231149E-02  0.24580983582E-01  0.00000000000E+00 0.  1.
     999901    1    3    3    0    0  0.48524727446E-01 -0.91376314321E-01  0.70685868181E-01  0.88887612858E+00  0.88000000000E+00 0.  1.
        -11    1    4    4    0    0 -0.24425204503E-01  0.43613189970E-01 -0.33822814650E-01  0.60356812923E-01  0.51100000000E-03 0.  1.
         11    1    4    4    0    0 -0.47164094554E-01  0.41566372484E-01 -0.31044930416E-01  0.70116074919E-01  0.51100000000E-03 0. -1.
</event>
<event>
 8    1  0.1093753E+005  0.1043930E+01  0.7957747E-01            NaN
         13   -1    0    0    0    0  0.00000000000E+00  0.00000000000E+00  0.74505805969E-08  0.10566000000E+00  0.10566000000E+00 0.  1.
     999900   -1    0    0    0    0 -0.00000000000E+00 -0.00000000000E+00 -0.74505805969E-08  0.93827000000E+00  0.93827000000E+00 0.  1.
     999902    2    1    2    0    0 -0.51944774405E-02  0.14819363534E-01 -0.17125989276E-01  0.10206943455E+01  0.10204298365E+01 0.  0.
     999903    2    3    3    0    0 -0.75794976443E-01 -0.10091042311E+00 -0.23897982167E-01  0.13028787997E+00  0.21818023915E-01 0.  0.
         14    1    1    2    0    0  0.51944774405E-02 -0.14819363534E-01  0.17125989276E-01  0.23235654501E-01  0.00000000000E+00 0.  1.
     999901    1    3    3    0    0  0.70600499002E-01  0.11572978665E+00  0.67719928918E-02  0.89040646553E+00  0.88000000000E+00 0. -1.
        -11    1    4    4    0    0 -0.50307460939E-01 -0.62771653005E-01 -0.25488045036E-01  0.84386151754E-01  0.51100000000E-03 0. -1.
         11    1    4    4    0    0 -0.25487515504E-01 -0.38138770107E-01  0.15900628689E-02  0.45901728211E-01  0.51100000000E-03 0.  1.
</event>
<event>
 8    1  0.1093753E+005  0.1043930E+01  0.7957747E-01            NaN
         13   -1    0    0    0    0  0.00000000000E+00  0.00000000000E+00  0.74505805969E-08  0.10566000000E+00  0.10566000000E+00 0. -1.
     999900   -1    0    0    0    0 -0.00000000000E+00 -0.00000000000E+00 -0.74505805969E-08  0.93827000000E+00  0.93827000000E+00 0. -1.
     999902    2    1    2    0    0 -0.15033298738E-01 -0.14120338063E-01 -0.52916418743E-02  0.10226371493E+01  0.10224154506E+01 0.  0.
     999903    2    3    3    0    0  0.62283466672E-01  0.47837216881E-01 -0.10346790113E+00  0.13165162824E+00  0.21422304148E-01 0.  0.
         14    1    1    2    0    0  0.15033298738E-01  0.14120338063E-01  0.52916418743E-02  0.21292850718E-01  0.00000000000E+00 0. -1.
     999901    1    3    3    0    0 -0.77316765410E-01 -0.61957554944E-01  0.98176259252E-01  0.89098552104E+00  0.88000000000E+00 0.  1.
        -11    1    4    4    0    0  0.45960170391E-01  0.43345747769E-01 -0.90254709092E-01  0.11016970884E+00  0.51100000000E-03 0.  1.
         11    1    4    4    0    0  0.16323296281E-01  0.44914691115E-02 -0.13213192034E-01  0.21481919398E-01  0.51100000000E-03 0. -1.
</event>
<event>
 8    1  0.1093753E+005  0.1043930E+01  0.7957747E-01            NaN
         13   -1    0    0    0    0  0.00000000000E+00  0.00000000000E+00  0.74505805969E-08  0.10566000000E+00  0.10566000000E+00 0.  1.
     999900   -1    0    0    0    0 -0.00000000000E+00 -0.00000000000E+00 -0.74505805969E-08  0.93827000000E+00  0.93827000000E+00 0.  1.
     999902    2    1    2    0    0  0.15667929829E-01 -0.14756994792E-01  0.91779604526E-02  0.10205315411E+01  0.10202632692E+01 0.  0.
     999903    2    3    3    0    0  0.13147337575E-01  0.11790176913E+00 -0.46222072383E-01  0.12886239581E+00  0.19883597018E-01 0.  0.
         14    1    1    2    0    0 -0.15667929829E-01  0.14756994792E-01 -0.91779604526E-02  0.23398458891E-01  0.00000000000E+00 0.  1.
     999901    1    3    3    0    0  0.25205922533E-02 -0.13265876392E+00  0.55400032836E-01  0.89166914529E+00  0.88000000000E+00 0. -1.
        -11    1    4    4    0    0  0.11681962222E-01  0.50685354939E-01 -0.11840902819E-01  0.53347366826E-01  0.51100000000E-03 0. -1.
         11    1    4    4    0    0  0.14653753534E-02  0.67216414191E-01 -0.34381169564E-01  0.75515028989E-01  0.51100000000E-03 0.  1.
</event>
<event>
 8    1  0.1093753E+005  0.1043930E+01  0.7957747E-01            NaN
         13   -1    0    0    0    0  0.00000000000E+00  0.00000000000E+00  0.74505805969E-08  0.10566000000E+00  0.10566000000E+00 0.  1.
     999900   -1    0    0    0    0 -0.00000000000E+00 -0.00000000000E+00 -0.74505805969E-08  0.93827000000E+00  0.93827000000E+00 0. -1.
     999902    2    1    2    0    0 -0.15025220492E-01  0.13501186964E-01 -0.10743360611E-01  0.10210507715E+01  0.10207944058E+01 0.  0.
     999903    2    3    3    0    0 -0.98749548833E-01  0.40327969041E-01  0.75012420571E-01  0.13252193492E+00  0.23608928697E-01 0.  0.
         14    1    1    2    0    0  0.15025220492E-01 -0.13501186964E-01  0.10743360611E-01  0.22879228516E-01  0.00000000000E+00 0.  1.
     999901    1    3    3    0    0  0.83724328341E-01 -0.26826782077E-01 -0.85755781182E-01  0.88852883656E+00  0.88000000000E+00 0. -1.
        -11    1    4    4    0    0 -0.78785626565E-01  0.30165804146E-01  0.46741092784E-01  0.96447610487E-01  0.51100000000E-03 0.  1.
         11    1    4    4    0    0 -0.19963922268E-01  0.10162164895E-01  0.28271327788E-01  0.36074324436E-01  0.51100000000E-03 0. -1.
</event>
<event>
 8    1  0.1093753E+005  0.1043930E+01  0.7957747E-01            NaN
         13   -1    0    0    0    0  0.00000000000E+00  0.00000000000E+00  0.74505805969E-08  0.10566000000E+00  0.10566000000E+00 0.  1.
     999900   -1    0    0    0    0 -0.00000000000E+00 -0.00000000000E+00 -0.74505805969E-08  0.93827000000E+00  0.93827000000E+00 0.  1.
     999902    2    1    2    0    0 -0.66499013661E-03 -0.23099796712E-01  0.21945320479E-04  0.10208206231E+01  0.10205590141E+01 0.  0.
     999903    2    3    3    0    0  0.38824320860E-01 -0.11258467391E+00  0.57854938187E-01  0.13351481109E+00  0.17215522615E-01 0.  0.
         14    1    1    2    0    0  0.66499013661E-03  0.23099796712E-01 -0.21945320479E-04  0.23109376919E-01  0.00000000000E+00 0.  1.
     999901    1    3    3    0    0 -0.39489310996E-01  0.89484877194E-01 -0.57832992866E-01  0.88730581199E+00  0.88000000000E+00 0.  1.
        -11    1    4    4    0    0  0.14802207127E-02 -0.25393673360E-01  0.13536623982E-01  0.28818934920E-01  0.51100000000E-03 0.  1.
         11    1    4    4    0    0  0.37344100147E-01 -0.87191000546E-01  0.44318314205E-01  0.10469587617E+00  0.51100000000E-03 0. -1.
</event>
<event>
 8    1  0.1093753E+005  0.1043930E+01  0.7957747E-01            NaN
         13   -1    0    0    0    0  0.00000000000E+00  0.00000000000E+00  0.74505805969E-08  0.10566000000E+00  0.10566000000E+00 0. -1.
     999900   -1    0    0    0    0 -0.00000000000E+00 -0.00000000000E+00 -0.74505805969E-08  0.93827000000E+00  0.93827000000E+00 0.  1.
     999902    2    1    2    0    0 -0.24643212539E-01 -0.81901125068E-02  0.64786290296E-02  0.10171654992E+01  0.10168133134E+01 0.  0.
     999903    2    3    3    0    0 -0.10972636637E+00  0.61539133074E-01  0.26473549592E-01  0.13009103359E+00  0.19896929800E-01 0.  0.
         14    1    1    2    0    0  0.24643212539E-01  0.81901125068E-02 -0.64786290296E-02  0.26764500765E-01  0.00000000000E+00 0. -1.
     999901    1    3    3    0    0  0.85083153831E-01 -0.69729245581E-01 -0.19994920562E-01  0.88707446565E+00  0.88000000000E+00 0. -1.
        -11    1    4    4    0    0 -0.59040303518E-01  0.22014682872E-01  0.10818646072E-01  0.63935185347E-01  0.51100000000E-03 0. -1.
         11    1    4    4    0    0 -0.50686062852E-01  0.39524450202E-01  0.15654903520E-01  0.66155848240E-01  0.51100000000E-03 0.  1.
</event>
<event>
 8    1  0.1093753E+005  0.1043930E+01  0.7957747E-01            NaN
         13   -1    0    0    0    0  0.00000000000E+00  0.00000000000E+00  0.74505805969E-08  0.10566000000E+00  0.10566000000E+00 0. -1.
     999900   -1    0    0    0    0 -0.00000000000E+00 -0.00000000000E+00 -0.74505805969E-08  0.93827000000E+00  0.93827000000E+00 0. -1.
     999902    2    1    2    0    0 -0.54797660334E-02  0.20634918910E-01 -0.10815874644E-01  0.10199965327E+01  0.10197157034E+01 0.  0.
     999903    2    3    3    0    0  0.98737155195E-01  0.72066520531E-01  0.41375122823E-01  0.13082260338E+00  0.21448626247E-01 0.  0.
         14    1    1    2    0    0  0.54797660334E-02 -0.20634918910E-01  0.10815874644E-01  0.23933467332E-01  0.00000000000E+00 0. -1.
     999901    1    3    3    0    0 -0.10421692123E+00 -0.51431601621E-01 -0.52190997467E-01  0.88917392929E+00  0.88000000000E+00 0.  1.
        -11    1    4    4    0    0  0.32905978429E-01  0.13577979503E-01  0.69613831765E-02  0.36275155692E-01  0.51100000000E-03 0.  1.
         11    1    4    4    0    0  0.65831176766E-01  0.58488541029E-01  0.34413739646E-01  0.94547447684E-01  0.51100000000E-03 0. -1.
</event>
<event>
 8    1  0.1093753E+005  0.1043930E+01  0.7957747E-01            NaN
         13   -1    0    0    0    0  0.00000000000E+00  0.00000000000E+00  0.74505805969E-08  0.10566000000E+00  0.10566000000E+00 0. -1.
     999900   -1    0    0    0    0 -0.00000000000E+00 -0.00000000000E+00 -0.74505805969E-08  0.93827000000E+00  0.93827000000E+00 0. -1.
     999902    2    1    2    0    0 -0.15849443059E-01 -0.15889298350E-01 -0.88149454274E-02  0.10198182205E+01  0.10195331407E+01 0.  0.
     999903    2    3    3    0    0  0.76086539531E-01 -0.61160375688E-01 -0.84547051821E-01  0.13064048390E+00  0.19722550817E-01 0.  0.
         14    1    1    2    0    0  0.15849443059E-01  0.15889298350E-01  0.88149454274E-02  0.24111779491E-01  0.00000000000E+00 0.  1.
     999901    1    3    3    0    0 -0.91935982590E-01  0.45271077338E-01  0.75732106393E-01  0.88917773661E+00  0.88000000000E+00 0.  1.
        -11    1    4    4    0    0  0.60692998803E-01 -0.41350030951E-01 -0.70878041099E-01  0.10206577778E+00  0.51100000000E-03 0. -1.
         11    1    4    4    0    0  0.15393540728E-01 -0.19810344737E-01 -0.13669010721E-01  0.28574706120E-01  0.51100000000E-03 0.  1.
</event>
<event>
 8    1  0.1093753E+005  0.1043930E+01  0.7957747E-01            NaN
         13   -1    0    0    0    0  0.00000000000E+00  0.00000000000E+00  0.74505805969E-08  0.10566000000E+00  0.10566000000E+00 0.  1.
     999900   -1    0    0    0    0 -0.00000000000E+00 -0.00000000000E+00 -0.74505805969E-08  0.93827000000E+00  0.93827000000E+00 0. -1.
     999902    2    1    2    0    0  0.58072585138E-02  0.91365582168E-02 -0.19859625257E-01  0.10213112984E+01  0.10210608026E+01 0.  0.
     999903    2    3    3    0    0 -0.14836360657E-01  0.12352082622E+00  0.36333644946E-01  0.13189148559E+00  0.24448274098E-01 0.  0.
         14    1    1    2    0    0 -0.58072585138E-02 -0.91365582168E-02  0.19859625257E-01  0.22618701617E-01  0.00000000000E+00 0.  1.
     999901    1    3    3    0    0  0.20643619171E-01 -0.11438426801E+00 -0.56193270203E-01  0.88941981280E+00  0.88000000000E+00 0. -1.
        -11    1    4    4    0    0 -0.14943033423E-01  0.65223907375E-01  0.90539363646E-02  0.67525456132E-01  0.51100000000E-03 0.  1.
         11    1    4    4    0    0  0.10667276579E-03  0.58296918849E-01  0.27279708582E-01  0.64366029454E-01  0.51100000000E-03 0. -1.
</event>
<event>
 8    1  0.1093753E+005  0.1043930E+01  0.7957747E-01            NaN
         13   -1    0    0    0    0  0.00000000000E+00  0.00000000000E+00  0.74505805969E-08  0.10566000000E+00  0.10566000000E+00 0. -1.
     999900   -1    0    0    0    0 -0.00000000000E+00 -0.00000000000E+00 -0.74505805969E-08  0.93827000000E+00  0.93827000000E+00 0.  1.
     999902    2    1    2    0    0 -0.17093775631E-01 -0.16454985479E-01 -0.38714516758E-02  0.10198893708E+01  0.10196059910E+01 0.  0.
     999903    2    3    3    0    0 -0.30272340473E-01 -0.11420184255E+00 -0.57278327786E-01  0.13277020350E+00  0.19714072746E-01 0.  0.
         14    1    1    2    0    0  0.17093775631E-01  0.16454985479E-01  0.38714516758E-02  0.24040629162E-01  0.00000000000E+00 0. -1.
     999901    1    3    3    0    0  0.13178564843E-01  0.97746857073E-01  0.53406876110E-01  0.88711916734E+00  0.88000000000E+00 0. -1.
        -11    1    4    4    0    0 -0.25020306765E-01 -0.10392794821E+00 -0.57157123030E-01  0.12121976738E+00  0.51100000000E-03 0. -1.
         11    1    4    4    0    0 -0.52520337083E-02 -0.10273894337E-01 -0.12120475584E-03  0.11550436118E-01  0.51100000000E-03 0.  1.
</event>
<event>
 8    1  0.1093753E+005  0.1043930E+01  0.7957747E-01            NaN
         13   -1    0    0    0    0  0.00000000000E+00  0.00000000000E+00  0.74505805969E-08  0.10566000000E+00  0.10566000000E+00 0.  1.
     999900   -1    0    0    0    0 -0.00000000000E+00 -0.00000000000E+00 -0.74505805969E-08  0.93827000000E+00  0.93827000000E+00 0.  1.
     999902    2    1    2    0    0 -0.18552201837E-01 -0.86579254260E-02  0.74150669398E-02  0.10221555406E+01  0.10219235891E+01 0.  0.
     999903    2    3    3    0    0 -0.93550038744E-02 -0.89112107030E-01  0.97351219044E-01  0.13387294182E+00  0.20401494689E-01 0.  0.
         14    1    1    2    0    0  0.18552201837E-01  0.86579254260E-02 -0.74150669398E-02  0.21774459429E-01  0.00000000000E+00 0. -1.
     999901    1    3    3    0    0 -0.91971979628E-02  0.80454181604E-01 -0.89936152104E-01  0.88828259875E+00  0.88000000000E+00 0.  1.
        -11    1    4    4    0    0 -0.15292748506E-01 -0.51740670169E-01  0.54195334112E-01  0.76474573990E-01  0.51100000000E-03 0. -1.
         11    1    4    4    0    0  0.59377446321E-02 -0.37371436861E-01  0.43155884932E-01  0.57398367830E-01  0.51100000000E-03 0.  1.
</event>
<event>
 8    1  0.1093753E+005  0.1043930E+01  0.7957747E-01            NaN
         13   -1    0    0    0    0  0.00000000000E+00  0.00000000000E+00  0.74505805969E-08  0.10566000000E+00  0.10566000000E+00 0.  1.
     999900   -1    0    0    0    0 -0.00000000000E+00 -0.00000000000E+00 -0.74505805969E-08  0.93827000000E+00  0.93827000000E+00 0.  1.
     999902    2    1    2    0    0  0.20755115449E-01  0.20294849445E-02  0.11311881281E-01  0.10202054919E+01  0.10199296022E+01 0.  0.
     999903    2    3    3    0    0 -0.56552590290E-01 -0.89846854904E-01  0.72418467876E-01  0.12995173138E+00  0.19296766444E-01 0.  0.
         14    1    1    2    0    0 -0.20755115449E-01 -0.20294849445E-02 -0.11311881281E-01  0.23724508100E-01  0.00000000000E+00 0. -1.
     999901    1    3    3    0    0  0.77307705739E-01  0.91876339849E-01 -0.61106586594E-01  0.89025376052E+00  0.88000000000E+00 0.  1.
        -11    1    4    4    0    0 -0.20435024400E-01 -0.50551040934E-01  0.36694441614E-01  0.65724737566E-01  0.51100000000E-03 0. -1.
         11    1    4    4    0    0 -0.36117565890E-01 -0.39295813970E-01  0.35724026262E-01  0.64226993816E-01  0.51100000000E-03 0.  1.
</event>
<event>
 8    1  0.1093753E+005  0.1043930E+01  0.7957747E-01            NaN
         13   -1    0    0    0    0  0.00000000000E+00  0.00000000000E+00  0.74505805969E-08  0.10566000000E+00  0.10566000000E+00 0. -1.
     999900   -1    0    0    0    0 -0.00000000000E+00 -0.00000000000E+00 -0.74505805969E-08  0.93827000000E+00  0.93827000000E+00 0.  1.
     999902    2    1    2    0    0 -0.23171575771E-01  0.26813215996E-02 -0.65034883003E-02  0.10197141628E+01  0.10194265874E+01 0.  0.
     999903    2    3    3    0    0 -0.52554388116E-01  0.11806712496E+00 -0.15539132164E-01  0.13164948269E+00  0.19705632610E-01 0.  0.
         14    1    1    2    0    0  0.23171575771E-01 -0.26813215996E-02  0.65034883003E-02  0.24215837159E-01  0.00000000000E+00 0.  1.
     999901    1    3    3    0    0  0.29382812345E-01 -0.11538580336E+00  0.90356438639E-02  0.88806468015E+00  0.88000000000E+00 0.  1.
        -11    1    4    4    0    0 -0.30970474292E-01  0.45686806149E-01 -0.63933499191E-02  0.55566091982E-01  0.51100000000E-03 0. -1.
         11    1    4    4    0    0 -0.21583913823E-01  0.72380318811E-01 -0.91457822451E-02  0.76083390704E-01  0.51100000000E-03 0.  1.
</event>
<event>
 8    1  0.1093753E+005  0.1043930E+01  0.7957747E-01            NaN
         13   -1    0    0    0    0  0.00000000000E+00  0.00000000000E+00  0.74505805969E-08  0.10566000000E+00  0.10566000000E+00 0.  1.
     999900   -1    0    0    0    0 -0.00000000000E+00 -0.00000000000E+00 -0.74505805969E-08  0.93827000000E+00  0.93827000000E+00 0.  1.
     999902    2    1    2    0    0 -0.17223802105E-01 -0.10961839544E-01 -0.11328110321E-01  0.10205816089E+01  0.10203144971E+01 0.  0.
     999903    2    3    3    0    0  0.93825771742E-01 -0.77729333172E-01  0.39353373146E-01  0.12965034394E+00  0.20381340169E-01 0.  0.
         14    1    1    2    0    0  0.17223802105E-01  0.10961839544E-01  0.11328110321E-01  0.23348391135E-01  0.00000000000E+00 0. -1.
     999901    1    3    3    0    0 -0.11104957385E+00  0.66767493628E-01 -0.50681483468E-01  0.89093126493E+00  0.88000000000E+00 0. -1.
        -11    1    4    4    0    0  0.42582576804E-01 -0.38362444310E-01  0.81608636452E-02  0.57894851214E-01  0.51100000000E-03 0. -1.
         11    1    4    4    0    0  0.51243194939E-01 -0.39366888861E-01  0.31192509501E-01  0.71755492724E-01  0.51100000000E-03 0.  1.
</event>
<event>
 8    1  0.1093753E+005  0.1043930E+01  0.7957747E-01            NaN
         13   -1    0    0    0    0  0.00000000000E+00  0.00000000000E+00  0.74505805969E-08  0.10566000000E+00  0.10566000000E+00 0. -1.
     999900   -1    0    0    0    0 -0.00000000000E+00 -0.00000000000E+00 -0.74505805969E-08  0.93827000000E+00  0.93827000000E+00 0. -1.
     999902    2    1    2    0    0  0.24656690499E-01 -0.13585363236E-02  0.35670685425E-02  0.10189796095E+01  0.10186741003E+01 0.  0.
     999903    2    3    3    0    0 -0.24519688178E-01  0.51458970954E-01  0.11342271414E+00  0.12921769295E+00  0.24150761676E-01 0.  0.
         14    1    1    2    0    0 -0.24656690499E-01  0.13585363236E-02 -0.35670685425E-02  0.24950390484E-01  0.00000000000E+00 0. -1.
     999901    1    3    3    0    0  0.49176378677E-01 -0.52817507278E-01 -0.10985564560E+00  0.88976191656E+00  0.88000000000E+00 0. -1.
        -11    1    4    4    0    0 -0.18672564012E-01  0.18750093230E-01  0.67738607532E-01  0.72725585005E-01  0.51100000000E-03 0. -1.
         11    1    4    4    0    0 -0.58471241659E-02  0.32708877724E-01  0.45684106607E-01  0.56492107949E-01  0.51100000000E-03 0.  1.
</event>
<event>
 8    1  0.1093753E+005  0.1043930E+01  0.7957747E-01            NaN
         13   -1    0    0    0    0  0.00000000000E+00  0.00000000000E+00  0.74505805969E-08  0.10566000000E+00  0.10566000000E+00 0. -1.
     999900   -1    0    0    0    0 -0.00000000000E+00 -0.00000000000E+00 -0.74505805969E-08  0.93827000000E+00  0.93827000000E+00 0.  1.
     999902    2    1    2    0    0  0.16470440987E-01 -0.11000879393E-01 -0.13830395884E-01  0.10197727107E+01  0.10194865408E+01 0.  0.
     999903    2    3    3    0    0 -0.67318974563E-01 -0.54007228673E-01  0.92759435533E-01  0.12835159567E+00  0.20523015048E-01 0.  0.
         14    1    1    2    0    0 -0.16470440987E-01  0.11000879393E-01  0.13830395884E-01  0.24157289252E-01  0.00000000000E+00 0. -1.
     999901    1    3    3    0    0  0.83789415550E-01  0.43006349280E-01 -0.10658983142E+00  0.89142111507E+00  0.88000000000E+00 0.  1.
        -11    1    4    4    0    0 -0.17533780974E-01 -0.21725896835E-01  0.41037169531E-01  0.49636261671E-01  0.51100000000E-03 0.  1.
         11    1    4    4    0    0 -0.49785193589E-01 -0.32281331838E-01  0.51722266002E-01  0.78715334004E-01  0.51100000000E-03 0. -1.
</event>
<event>
 8    1  0.1093753E+005  0.1043930E+01  0.7957747E-01            NaN
         13   -1    0    0    0    0  0.00000000000E+00  0.00000000000E+00  0.74505805969E-08  0.10566000000E+00  0.10566000000E+00 0.  1.
     999900   -1    0    0    0    0 -0.00000000000E+00 -0.00000000000E+00 -0.74505805969E-08  0.93827000000E+00  0.93827000000E+00 0.  1.
     999902    2    1    2    0    0 -0.41639606905E-02  0.12594891188E-01 -0.18307419955E-01  0.10213217830E+01  0.10210715219E+01 0.  0.
     999903    2    3    3    0    0 -0.76293237610E-01  0.64509571110E-01  0.82437685886E-01  0.13112666786E+00  0.20398237676E-01 0.  0.
         14    1    1    2    0    0  0.41639606905E-02 -0.12594891188E-01  0.18307419955E-01  0.22608217048E-01  0.00000000000E+00 0.  1.
     999901    1    3    3    0    0  0.72129276919E-01 -0.51914679922E-01 -0.10074510584E+00  0.89019511509E+00  0.88000000000E+00 0. -1.
        -11    1    4    4    0    0 -0.61111364914E-01  0.51984887903E-01  0.54672195926E-01  0.97089328045E-01  0.51100000000E-03 0. -1.
         11    1    4    4    0    0 -0.15181872696E-01  0.12524683207E-01  0.27765489961E-01  0.34037339816E-01  0.51100000000E-03 0.  1.
</event>
<event>
 8    1  0.1093753E+005  0.1043930E+01  0.7957747E-01            NaN
         13   -1    0    0    0    0  0.00000000000E+00  0.00000000000E+00  0.74505805969E-08  0.10566000000E+00  0.10566000000E+00 0. -1.
     999900   -1    0    0    0    0 -0.00000000000E+00 -0.00000000000E+00 -0.74505805969E-08  0.93827000000E+00  0.93827000000E+00 0. -1.
     999902    2    1    2    0    0 -0.19173486563E-01 -0.58246297683E-02 -0.12753676392E-01  0.10201769968E+01  0.10199004362E+01 0.  0.
     999903    2    3    3    0    0  0.27018018201E-01  0.12166558445E+00  0.25203634052E-01  0.12898219922E+00  0.21649406464E-01 0.  0.
         14    1    1    2    0    0  0.19173486563E-01  0.58246297683E-02  0.12753676392E-01  0.23753003187E-01  0.00000000000E+00 0.  1.
     999901    1    3    3    0    0 -0.46191504764E-01 -0.12749021422E+00 -0.37957310444E-01  0.89119479759E+00  0.88000000000E+00 0. -1.
        -11    1    4    4    0    0  0.14718214026E-01  0.56740840004E-01  0.22671223496E-01  0.62852161811E-01  0.51100000000E-03 0.  1.
         11    1    4    4    0    0  0.12299804175E-01  0.64924744445E-01  0.25324105567E-02  0.66130037413E-01  0.51100000000E-03 0. -1.
</event>
<event>
 8    1  0.1093753E+005  0.1043930E+01  0.7957747E-01            NaN
         13   -1    0    0    0    0  0.00000000000E+00  0.00000000000E+00  0.74505805969E-08  0.10566000000E+00  0.10566000000E+00 0.  1.
     999900   -1    0    0    0    0 -0.00000000000E+00 -0.00000000000E+00 -0.74505805969E-08  0.93827000000E+00  0.93827000000E+00 0. -1.
     999902    2    1    2    0    0  0.20952433267E-01 -0.27175372394E-02 -0.12069048458E-01  0.10195978937E+01  0.10193075166E+01 0.  0.
     999903    2    3    3    0    0  0.80689237097E-01  0.16073667555E-01  0.99091096528E-01  0.13039703168E+00  0.20377062771E-01 0.  0.
         14    1    1    2    0    0 -0.20952433267E-01  0.27175372394E-02  0.12069048458E-01  0.24332106344E-01  0.00000000000E+00 0.  1.
     999901    1    3    3    0    0 -0.59736803830E-01 -0.18791204794E-01 -0.11116014499E+00  0.88920086198E+00  0.88000000000E+00 0. -1.
        -11    1    4    4    0    0  0.62098137187E-01  0.20107274748E-01  0.70773635506E-01  0.96279020267E-01  0.51100000000E-03 0.  1.
         11    1    4    4    0    0  0.18591099911E-01 -0.40336071932E-02  0.28317461022E-01  0.34118011411E-01  0.51100000000E-03 0. -1.
</event>
<event>
 8    1  0.1093753E+005  0.1043930E+01  0.7957747E-01            NaN
         13   -1    0    0    0    0  0.00000000000E+00  0.00000000000E+00  0.74505805969E-08  0.10566000000E+00  0.10566000000E+00 0.  1.
     999900   -1    0    0    0    0 -0.00000000000E+00 -0.00000000000E+00 -0.74505805969E-08  0.93827000000E+00  0.93827000000E+00 0.  1.
     999902    2    1    2    0    0  0.16984328233E-01 -0.32818082200E-02  0.26791010330E-02  0.10264252791E+01  0.10262760050E+01 0.  0.
     999903    2    3    3    0    0 -0.10516689824E+00  0.79766619393E-01  0.13009059997E-01  0.13405502440E+00  0.19460829088E-01 0.  0.
         14    1    1    2    0    0 -0.16984328233E-01  0.32818082200E-02 -0.26791010330E-02  0.17504720880E-01  0.00000000000E+00 0. -1.
     999901    1    3    3    0    0  0.12215122648E+00 -0.83048427613E-01 -0.10329958964E-01  0.89237025472E+00  0.88000000000E+00 0.  1.
        -11    1    4    4    0    0 -0.46867294188E-01  0.36104924666E-01 -0.38562887107E-02  0.59289467305E-01  0.51100000000E-03 0. -1.
         11    1    4    4    0    0 -0.58299604057E-01  0.43661694726E-01  0.16865348708E-01  0.74765557094E-01  0.51100000000E-03 0.  1.
</event>
<event>
 8    1  0.1093753E+005  0.1043930E+01  0.7957747E-01            NaN
         13   -1    0    0    0    0  0.00000000000E+00  0.00000000000E+00  0.74505805969E-08  0.10566000000E+00  0.10566000000E+00 0. -1.
     999900   -1    0    0    0    0 -0.00000000000E+00 -0.00000000000E+00 -0.74505805969E-08  0.93827000000E+00  0.93827000000E+00 0. -1.
     999902    2    1    2    0    0 -0.10826812502E-01  0.95823340347E-02  0.17863886500E-01  0.10209482804E+01  0.10206895864E+01 0.  0.
     999903    2    3    3    0    0 -0.12333860926E+00 -0.24258975145E-01 -0.33774286550E-01  0.13163920054E+00  0.19679082280E-01 0.  0.
         14    1    1    2    0    0  0.10826812502E-01 -0.95823340347E-02 -0.17863886500E-01  0.22981719591E-01  0.00000000000E+00 0.  1.
     999901    1    3    3    0    0  0.11251179675E+00  0.33841309180E-01  0.51638173049E-01  0.88930907987E+00  0.88000000000E+00 0.  1.
        -11    1    4    4    0    0 -0.57138050901E-01 -0.36079340281E-02 -0.21801823643E-01  0.61264628326E-01  0.51100000000E-03 0. -1.
         11    1    4    4    0    0 -0.66200558354E-01 -0.20651041117E-01 -0.11972462906E-01  0.70374572217E-01  0.51100000000E-03 0.  1.
</event>
<event>
 8    1  0.1093753E+005  0.1043930E+01  0.7957747E-01            NaN
         13   -1    0    0    0    0  0.00000000000E+00  0.00000000000E+00  0.74505805969E-08  0.10566000000E+00  0.10566000000E+00 0. -1.
     999900   -1    0    0    0    0 -0.00000000000E+00 -0.00000000000E+00 -0.74505805969E-08  0.93827000000E+00  0.93827000000E+00 0. -1.
     999902    2    1    2    0    0  0.20804324496E-01 -0.11580629057E-01 -0.16441638894E-02  0.10200629901E+01  0.10197837367E+01 0.  0.
     999903    2    3    3    0    0 -0.32426426435E-01  0.11676959553E+00  0.36860019724E-01  0.12832880035E+00  0.20567167356E-01 0.  0.
         14    1    1    2    0    0 -0.20804324496E-01  0.11580629057E-01  0.16441638894E-02  0.23867009909E-01  0.00000000000E+00 0.  1.
     999901    1    3    3    0    0  0.53230750931E-01 -0.12835022459E+00 -0.38504183613E-01  0.89173418974E+00  0.88000000000E+00 0. -1.
        -11    1    4    4    0    0 -0.15774560251E-01  0.90097938881E-01  0.27890949730E-01  0.95627619125E-01  0.51100000000E-03 0.  1.
         11    1    4    4    0    0 -0.16651866184E-01  0.26671656652E-01  0.89690699933E-02  0.32701181225E-01  0.51100000000E-03 0. -1.
</event>
<event>
 8    1  0.1093753E+005  0.1043930E+01  0.7957747E-01            NaN
         13   -1    0    0    0    0  0.00000000000E+00  0.00000000000E+00  0.74505805969E-08  0.10566000000E+00  0.10566000000E+00 0. -1.
     999900   -1    0    0    0    0 -0.00000000000E+00 -0.00000000000E+00 -0.74505805969E-08  0.93827000000E+00  0.93827000000E+00 0.  1.
     999902    2    1    2    0    0 -0.93953065041E-03  0.15423963314E-01 -0.17742677312E-01  0.10204016350E+01  0.10201303410E+01 0.  0.
     999903    2    3    3    0    0  0.18020027275E-01 -0.75998745845E-01  0.99006905409E-01  0.12779419515E+00  0.20699232873E-01 0.  0.
         14    1    1    2    0    0  0.93953065041E-03 -0.15423963314E-01  0.17742677312E-01  0.23528365016E-01  0.00000000000E+00 0. -1.
     999901    1    3    3    0    0 -0.18959557926E-01  0.91422709159E-01 -0.11674958272E+00  0.89260743984E+00  0.88000000000E+00 0.  1.
        -11    1    4    4    0    0  0.33989414519E-02 -0.36397926429E-01  0.31942472668E-01  0.48548373119E-01  0.51100000000E-03 0. -1.
         11    1    4    4    0    0  0.14621085824E-01 -0.39600819416E-01  0.67064432741E-01  0.79245822028E-01  0.51100000000E-03 0.  1.
</event>
<event>
 8    1  0.1093753E+005  0.1043930E+01  0.7957747E-01            NaN
         13   -1    0    0    0    0  0.00000000000E+00  0.00000000000E+00  0.74505805969E-08  0.10566000000E+00  0.10566000000E+00 0. -1.
     999900   -1    0    0    0    0 -0.00000000000E+00 -0.00000000000E+00 -0.74505805969E-08  0.93827000000E+00  0.93827000000E+00 0. -1.
     999902    2    1    2    0    0  0.22621178656E-01 -0.41380866863E-02 -0.40650570041E-02  0.10205769237E+01  0.10203097035E+01 0.  0.
     999903    2    3    3    0    0  0.51508570095E-01  0.11574698282E+00 -0.29251163486E-01  0.13162177789E+00  0.20449083701E-01 0.  0.
         14    1    1    2    0    0 -0.22621178656E-01  0.41380866863E-02  0.40650570041E-02  0.23353076321E-01  0.00000000000E+00 0.  1.
     999901    1    3    3    0    0 -0.28887391439E-01 -0.11988506950E+00  0.25186106482E-01  0.88895514579E+00  0.88000000000E+00 0.  1.
        -11    1    4    4    0    0  0.13268886780E-01  0.29842506749E-01  0.14743891658E-02  0.32696689586E-01  0.51100000000E-03 0.  1.
         11    1    4    4    0    0  0.38239683315E-01  0.85904476066E-01 -0.30725552652E-01  0.98925088299E-01  0.51100000000E-03 0. -1.
</event>
<event>
 8    1  0.1093753E+005  0.1043930E+01  0.7957747E-01            NaN
         13   -1    0    0    0    0  0.00000000000E+00  0.00000000000E+00  0.74505805969E-08  0.10566000000E+00  0.10566000000E+00 0. -1.
     999900   -1    0    0    0    0 -0.00000000000E+00 -0.00000000000E+00 -0.74505805969E-08  0.93827000000E+00  0.93827000000E+00 0. -1.
     999902    2    1    2    0    0  0.10959683202E-01 -0.12114142311E-01 -0.19668026585E-01  0.10183624743E+01  0.10180414681E+01 0.  0.
     999903    2    3    3    0    0  0.65145523693E-01 -0.10883458596E+00  0.22470276138E-01  0.13040606430E+00  0.20295860160E-01 0.  0.
         14    1    1    2    0    0 -0.10959683202E-01  0.12114142311E-01  0.19668026585E-01  0.25567525684E-01  0.00000000000E+00 0. -1.
     999901    1    3    3    0    0 -0.54185840491E-01  0.96720443645E-01 -0.42138302724E-01  0.88795641001E+00  0.88000000000E+00 0.  1.
        -11    1    4    4    0    0  0.18840356328E-01 -0.21290143336E-01  0.11836201609E-01  0.30799123678E-01  0.51100000000E-03 0. -1.
         11    1    4    4    0    0  0.46305167365E-01 -0.87544442620E-01  0.10634074530E-01  0.99606940624E-01  0.51100000000E-03 0.  1.
</event>
<event>
 8    1  0.1093753E+005  0.1043930E+01  0.7957747E-01            NaN
         13   -1    0    0    0    0  0.00000000000E+00  0.00000000000E+00  0.74505805969E-08  0.10566000000E+00  0.10566000000E+00 0. -1.
     999900   -1    0    0    0    0 -0.00000000000E+00 -0.00000000000E+00 -0.74505805969E-08  0.93827000000E+00  0.93827000000E+00 0. -1.
     999902    2    1    2    0    0 -0.10869306991E-01 -0.18048762159E-01 -0.97642649539E-02  0.10207084471E+01  0.10204442628E+01 0.  0.
     999903    2    3    3    0    0  0.25013585751E-01 -0.12893260914E+00 -0.72193125536E-02  0.13302084083E+00  0.19827466994E-01 0.  0.
         14    1    1    2    0    0  0.10869306991E-01  0.18048762159E-01  0.97642649539E-02  0.23221552920E-01  0.00000000000E+00 0.  1.
     999901    1    3    3    0    0 -0.35882892743E-01  0.11088384699E+00 -0.25449524003E-02  0.88768760625E+00  0.88000000000E+00 0. -1.
        -11    1    4    4    0    0  0.19190609203E-01 -0.10554002844E+00  0.17738667155E-02  0.10728646144E+00  0.51100000000E-03 0. -1.
         11    1    4    4    0    0  0.58229765487E-02 -0.23392580703E-01 -0.89931792691E-02  0.25734379383E-01  0.51100000000E-03 0.  1.
</event>
<event>
 8    1  0.1093753E+005  0.1043930E+01  0.7957747E-01            NaN
         13   -1    0    0    0    0  0.00000000000E+00  0.00000000000E+00  0.74505805969E-08  0.10566000000E+00  0.10566000000E+00 0.  1.
     999900   -1    0    0    0    0 -0.00000000000E+00 -0.00000000000E+00 -0.74505805969E-08  0.93827000000E+00  0.93827000000E+00 0.  1.
     999902    2    1    2    0    0 -0.47715012781E-02 -0.16483158550E-01  0.14197069647E-01  0.10216585266E+01  0.10214157461E+01 0.  0.
     999903    2    3    3    0    0  0.11805797409E+00  0.27596170594E-01 -0.43296871682E-01  0.13017907056E+00  0.19306409210E-01 0.  0.
         14    1    1    2    0    0  0.47715012781E-02  0.16483158550E-01 -0.14197069647E-01  0.22271473387E-01  0.00000000000E+00 0. -1.
     999901    1    3    3    0    0 -0.12282947537E+00 -0.44079329144E-01  0.57493941329E-01  0.89147945605E+00  0.88000000000E+00 0.  1.
        -11    1    4    4    0    0  0.98407390914E-01  0.30066430473E-01 -0.37750738975E-01  0.10960558490E+00  0.51100000000E-03 0. -1.
         11    1    4    4    0    0  0.19650583176E-01 -0.24702598791E-02 -0.55461327070E-02  0.20573485656E-01  0.51100000000E-03 0.  1.
</event>
<event>
 8    1  0.1093753E+005  0.1043930E+01  0.7957747E-01            NaN
         13   -1    0    0    0    0  0.00000000000E+00  0.00000000000E+00  0.74505805969E-08  0.10566000000E+00  0.10566000000E+00 0.  1.
     999900   -1    0    0    0    0 -0.00000000000E+00 -0.00000000000E+00 -0.74505805969E-08  0.93827000000E+00  0.93827000000E+00 0.  1.
     999902    2    1    2    0    0  0.11197720879E-01  0.20023593979E-01 -0.38608543722E-03  0.10209847972E+01  0.10207269340E+01 0.  0.
     999903    2    3    3    0    0  0.86572261820E-01  0.10067492409E+00 -0.36872123253E-03  0.13408798317E+00  0.18688349761E-01 0.  0.
         14    1    1    2    0    0 -0.11197720879E-01 -0.20023593979E-01  0.38608543722E-03  0.22945202782E-01  0.00000000000E+00 0.  1.
     999901    1    3    3    0    0 -0.75374540941E-01 -0.80651330114E-01 -0.17364204686E-04  0.88689681405E+00  0.88000000000E+00 0.  1.
        -11    1    4    4    0    0  0.41631437705E-01  0.37666373276E-01 -0.61332733703E-02  0.56478406886E-01  0.51100000000E-03 0.  1.
         11    1    4    4    0    0  0.44940824114E-01  0.63008550818E-01  0.57645521377E-02  0.77609576282E-01  0.51100000000E-03 0. -1.
</event>
<event>
 8    1  0.1093753E+005  0.1043930E+01  0.7957747E-01            NaN
         13   -1    0    0    0    0  0.00000000000E+00  0.00000000000E+00  0.74505805969E-08  0.10566000000E+00  0.10566000000E+00 0. -1.
     999900   -1    0    0    0    0 -0.00000000000E+00 -0.00000000000E+00 -0.74505805969E-08  0.93827000000E+00  0.93827000000E+00 0.  1.
     999902    2    1    2    0    0 -0.20513167393E-01 -0.29763240874E-02  0.11847769223E-01  0.10200549466E+01  0.10197755027E+01 0.  0.
     999903    2    3    3    0    0 -0.96106299302E-01  0.51483138878E-01  0.73219451535E-01  0.13301118321E+00  0.21070178480E-01 0.  0.
         14    1    1    2    0    0  0.20513167393E-01  0.29763240874E-02 -0.11847769223E-01  0.23875053448E-01  0.00000000000E+00 0.  1.
     999901    1    3    3    0    0  0.75593131908E-01 -0.54459462965E-01 -0.61371682312E-01  0.88704376334E+00  0.88000000000E+00 0. -1.
        -11    1    4    4    0    0 -0.94882175343E-02  0.85023297547E-02  0.16688663804E-01  0.21002107128E-01  0.51100000000E-03 0.  1.
         11    1    4    4    0    0 -0.86618081767E-01  0.42980809123E-01  0.56530787731E-01  0.11200907608E+00  0.51100000000E-03 0. -1.
</event>
<event>
 8    1  0.1093753E+005  0.1043930E+01  0.7957747E-01            NaN
         13   -1    0    0    0    0  0.00000000000E+00  0.00000000000E+00  0.74505805969E-08  0.10566000000E+00  0.10566000000E+00 0. -1.
     999900   -1    0    0    0    0 -0.00000000000E+00 -0.00000000000E+00 -0.74505805969E-08  0.93827000000E+00  0.93827000000E+00 0.  1.
     999902    2    1    2    0    0  0.38247166826E-02  0.10182636468E-01 -0.19386264419E-01  0.10217006997E+01  0.10214588479E+01 0.  0.
     999903    2    3    3    0    0  0.13794074951E-01  0.10952215980E-01 -0.13193485226E+00  0.13447628336E+00  0.19153015607E-01 0.  0.
         14    1    1    2    0    0 -0.38247166826E-02 -0.10182636468E-01  0.19386264419E-01  0.22229300287E-01  0.00000000000E+00 0. -1.
     999901    1    3    3    0    0 -0.99693582683E-02 -0.76957951157E-03  0.11254858784E+00  0.88722441636E+00  0.88000000000E+00 0. -1.
        -11    1    4    4    0    0  0.11830204757E-01 -0.13359908306E-02 -0.88243049438E-01  0.89044008845E-01  0.51100000000E-03 0.  1.
         11    1    4    4    0    0  0.19638701943E-02  0.12288206811E-01 -0.43691802817E-01  0.45432274510E-01  0.51100000000E-03 0. -1.
</event>
<event>
 8    1  0.1093753E+005  0.1043930E+01  0.7957747E-01            NaN
         13   -1    0    0    0    0  0.00000000000E+00  0.00000000000E+00  0.74505805969E-08  0.10566000000E+00  0.10566000000E+00 0. -1.
     999900   -1    0    0    0    0 -0.00000000000E+00 -0.00000000000E+00 -0.74505805969E-08  0.93827000000E+00  0.93827000000E+00 0. -1.
     999902    2    1    2    0    0 -0.21894574067E-01  0.96493544681E-02 -0.83546484312E-03  0.10199888134E+01  0.10197078008E+01 0.  0.
     999903    2    3    3    0    0  0.11358891284E+00 -0.50225390271E-01 -0.19526956671E-01  0.12741381253E+00  0.20686871174E-01 0.  0.
         14    1    1    2    0    0  0.21894574067E-01 -0.96493544681E-02  0.83546484312E-03  0.23941186619E-01  0.00000000000E+00 0.  1.
     999901    1    3    3    0    0 -0.13548348690E+00  0.59874744739E-01  0.18691491828E-01  0.89257500085E+00  0.88000000000E+00 0. -1.
        -11    1    4    4    0    0  0.74982449548E-01 -0.23421019810E-01 -0.76100007170E-02  0.78924553474E-01  0.51100000000E-03 0.  1.
         11    1    4    4    0    0  0.38606463289E-01 -0.26804370461E-01 -0.11916955954E-01  0.48489259055E-01  0.51100000000E-03 0. -1.
</event>
<event>
 8    1  0.1093753E+005  0.1043930E+01  0.7957747E-01            NaN
         13   -1    0    0    0    0  0.00000000000E+00  0.00000000000E+00  0.74505805969E-08  0.10566000000E+00  0.10566000000E+00 0.  1.
     999900   -1    0    0    0    0 -0.00000000000E+00 -0.00000000000E+00 -0.74505805969E-08  0.93827000000E+00  0.93827000000E+00 0. -1.
     999902    2    1    2    0    0  0.29411685541E-02  0.65777140603E-03 -0.24796339931E-01  0.10189511768E+01  0.10186449622E+01 0.  0.
     999903    2    3    3    0    0 -0.92382964580E-01  0.82382298824E-01  0.27753904433E-01  0.12848662559E+00  0.20422498376E-01 0.  0.
         14    1    1    2    0    0 -0.29411685541E-02 -0.65777140603E-03  0.24796339931E-01  0.24978823224E-01  0.00000000000E+00 0.  1.
     999901    1    3    3    0    0  0.95324133134E-01 -0.81724527418E-01 -0.52550244364E-01  0.89046455119E+00  0.88000000000E+00 0.  1.
        -11    1    4    4    0    0 -0.75079771232E-01  0.61673614248E-01  0.13917471470E-01  0.98155814274E-01  0.51100000000E-03 0. -1.
         11    1    4    4    0    0 -0.17303193348E-01  0.20708684576E-01  0.13836432963E-01  0.30330811315E-01  0.51100000000E-03 0.  1.
</event>
<event>
 8    1  0.1093753E+005  0.1043930E+01  0.7957747E-01            NaN
         13   -1    0    0    0    0  0.00000000000E+00  0.00000000000E+00  0.74505805969E-08  0.10566000000E+00  0.10566000000E+00 0. -1.
     999900   -1    0    0    0    0 -0.00000000000E+00 -0.00000000000E+00 -0.74505805969E-08  0.93827000000E+00  0.93827000000E+00 0. -1.
     999902    2    1    2    0    0 -0.74322349950E-02 -0.19594769391E-01  0.88987625701E-02  0.10211620163E+01  0.10209081656E+01 0.  0.
     999903    2    3    3    0    0 -0.35544049272E-01 -0.12432554430E+00  0.30266751540E-01  0.13424860441E+00  0.19656834268E-01 0.  0.
         14    1    1    2    0    0  0.74322349950E-02  0.19594769391E-01 -0.88987625701E-02  0.22767983657E-01  0.00000000000E+00 0.  1.
     999901    1    3    3    0    0  0.28111814277E-01  0.10473077491E+00 -0.21367988970E-01  0.88691341193E+00  0.88000000000E+00 0.  1.
        -11    1    4    4    0    0 -0.10554680427E-01 -0.70529339460E-01  0.13250510106E-01  0.72537067370E-01  0.51100000000E-03 0. -1.
         11    1    4    4    0    0 -0.24989368844E-01 -0.53796204839E-01  0.17016241433E-01  0.61711537040E-01  0.51100000000E-03 0.  1.
</event>
<event>
 8    1  0.1093753E+005  0.1043930E+01  0.7957747E-01            NaN
         13   -1    0    0    0    0  0.00000000000E+00  0.00000000000E+00  0.74505805969E-08  0.10566000000E+00  0.10566000000E+00 0. -1.
     999900   -1    0    0    0    0 -0.00000000000E+00 -0.00000000000E+00 -0.74505805969E-08  0.93827000000E+00  0.93827000000E+00 0. -1.
     999902    2    1    2    0    0 -0.10752059907E-01  0.18642085289E-01  0.60818994245E-02  0.10215665558E+01  0.10213217438E+01 0.  0.
     999903    2    3    3    0    0 -0.18486302645E-01 -0.63487982491E-01 -0.11022188616E+00  0.13008927785E+00  0.20047162341E-01 0.  0.
         14    1    1    2    0    0  0.10752059907E-01 -0.18642085289E-01 -0.60818994245E-02  0.22363444207E-01  0.00000000000E+00 0. -1.
     999901    1    3    3    0    0  0.77342427377E-02  0.82130067780E-01  0.11630378558E+00  0.89147727794E+00  0.88000000000E+00 0.  1.
        -11    1    4    4    0    0 -0.34029668394E-02 -0.45416751488E-01 -0.71886788390E-01  0.85101310008E-01  0.51100000000E-03 0.  1.
         11    1    4    4    0    0 -0.15083335806E-01 -0.18071231004E-01 -0.38335097767E-01  0.44987967845E-01  0.51100000000E-03 0. -1.
</event>
<event>
 8    1  0.1093753E+005  0.1043930E+01  0.7957747E-01            NaN
         13   -1    0    0    0    0  0.00000000000E+00  0.00000000000E+00  0.74505805969E-08  0.10566000000E+00  0.10566000000E+00 0.  1.
     999900   -1    0    0    0    0 -0.00000000000E+00 -0.00000000000E+00 -0.74505805969E-08  0.93827000000E+00  0.93827000000E+00 0.  1.
     999902    2    1    2    0    0  0.72745977099E-02 -0.14258552263E-01  0.17226008643E-01  0.10204148675E+01  0.10201438821E+01 0.  0.
     999903    2    3    3    0    0  0.98636560658E-01 -0.79636947922E-01 -0.30881917840E-01  0.13196919356E+00  0.19772724288E-01 0.  0.
         14    1    1    2    0    0 -0.72745977099E-02  0.14258552263E-01 -0.17226008643E-01  0.23515132537E-01  0.00000000000E+00 0. -1.
     999901    1    3    3    0    0 -0.91361962948E-01  0.65378395659E-01  0.48107926482E-01  0.88844567391E+00  0.88000000000E+00 0.  1.
        -11    1    4    4    0    0  0.41415647807E-01 -0.34294431818E-01 -0.31368532671E-02  0.53865247668E-01  0.51100000000E-03 0.  1.
         11    1    4    4    0    0  0.57220912851E-01 -0.45342516104E-01 -0.27745064573E-01  0.78103945888E-01  0.51100000000E-03 0. -1.
</event>
<event>
 8    1  0.1093753E+005  0.1043930E+01  0.7957747E-01            NaN
         13   -1    0    0    0    0  0.00000000000E+00  0.00000000000E+00  0.74505805969E-08  0.10566000000E+00  0.10566000000E+00 0.  1.
     999900   -1    0    0    0    0 -0.00000000000E+00 -0.00000000000E+00 -0.74505805969E-08  0.93827000000E+00  0.93827000000E+00 0.  1.
     999902    2    1    2    0    0  0.42433251816E-03 -0.20575762685E-01 -0.10391625917E-01  0.10208751099E+01  0.10206147471E+01 0.  0.
     999903    2    3    3    0    0  0.18681267723E-01 -0.69076900651E-02  0.12690497071E+00  0.12993712815E+00  0.19546859931E-01 0.  0.
         14    1    1    2    0    0 -0.42433251816E-03  0.20575762685E-01  0.10391625917E-01  0.23054890096E-01  0.00000000000E+00 0. -1.
     999901    1    3    3    0    0 -0.18256935205E-01 -0.13668072619E-01 -0.13729659663E+00  0.89093798176E+00  0.88000000000E+00 0.  1.
        -11    1    4    4    0    0  0.17121136662E-01  0.28385672648E-02  0.66514290593E-01  0.68743019709E-01  0.51100000000E-03 0.  1.
         11    1    4    4    0    0  0.15601310615E-02 -0.97462573299E-02  0.60390680121E-01  0.61194108437E-01  0.51100000000E-03 0. -1.
</event>
<event>
 7    1  0.1093753E+005  0.1043930E+01  0.7957747E-01            NaN
         13   -1    0    0    0    0  0.00000000000E+00  0.00000000000E+00  0.74505805969E-08  0.10566000000E+00  0.10566000000E+00 0. -1.
     999900   -1    0    0    0    0 -0.00000000000E+00 -0.00000000000E+00 -0.74505805969E-08  0.93827000000E+00  0.93827000000E+00 0. -1.
     999903    2    1    2    0    0 -0.79318069221E-01 -0.28408071078E-01  0.78825498693E-01  0.11719876637E+00  0.20584386957E-01 0.  0.
         14    1    1    2    0    0  0.25495935185E-01  0.32374767851E-01  0.28224344239E-02  0.41305380285E-01  0.00000000000E+00 0. -1.
     999901    1    1    2    0    0  0.53822134036E-01 -0.39666967729E-02 -0.81647933117E-01  0.88542585335E+00  0.88000000000E+00 0. -1.
        -11    1    3    3    0    0 -0.52959859395E-01 -0.10518401836E-01  0.41350810445E-01  0.68011279431E-01  0.51100000000E-03 0.  1.
         11    1    3    3    0    0 -0.26358209826E-01 -0.17889669242E-01  0.37474688248E-01  0.49187486936E-01  0.51100000000E-03 0. -1.
</event>
<event>
 8    1  0.1093753E+005  0.1043930E+01  0.7957747E-01            NaN
         13   -1    0    0    0    0  0.00000000000E+00  0.00000000000E+00  0.74505805969E-08  0.10566000000E+00  0.10566000000E+00 0.  1.
     999900   -1    0    0    0    0 -0.00000000000E+00 -0.00000000000E+00 -0.74505805969E-08  0.93827000000E+00  0.93827000000E+00 0. -1.
     999902    2    1    2    0    0 -0.38217558137E-02  0.23063330629E-01 -0.40251396812E-02  0.10202081791E+01  0.10199323526E+01 0.  0.
     999903    2    3    3    0    0 -0.61618553082E-01  0.94118522464E-01  0.67338654769E-01  0.13258094810E+00  0.19699518221E-01 0.  0.
         14    1    1    2    0    0  0.38217558137E-02 -0.23063330629E-01  0.40251396812E-02  0.23721820897E-01  0.00000000000E+00 0.  1.
     999901    1    3    3    0    0  0.57796797268E-01 -0.71055191834E-01 -0.71363794450E-01  0.88762723100E+00  0.88000000000E+00 0.  1.
        -11    1    4    4    0    0 -0.21220316028E-01  0.46585903029E-01  0.37309423671E-01  0.63346684120E-01  0.51100000000E-03 0. -1.
         11    1    4    4    0    0 -0.40398237054E-01  0.47532619435E-01  0.30029231098E-01  0.69234263980E-01  0.51100000000E-03 0.  1.
</event>
<event>
 8    1  0.1093753E+005  0.1043930E+01  0.7957747E-01            NaN
         13   -1    0    0    0    0  0.00000000000E+00  0.00000000000E+00  0.74505805969E-08  0.10566000000E+00  0.10566000000E+00 0.  1.
     999900   -1    0    0    0    0 -0.00000000000E+00 -0.00000000000E+00 -0.74505805969E-08  0.93827000000E+00  0.93827000000E+00 0. -1.
     999902    2    1    2    0    0  0.17406651997E-01 -0.81344036740E-02 -0.14581580079E-01  0.10198098314E+01  0.10195245508E+01 0.  0.
     999903    2    3    3    0    0  0.85793232749E-01  0.28766597738E-01 -0.94891525674E-01  0.13274269993E+00  0.20693641742E-01 0.  0.
         14    1    1    2    0    0 -0.17406651997E-01  0.81344036740E-02  0.14581580079E-01  0.24120168624E-01  0.00000000000E+00 0.  1.
     999901    1    3    3    0    0 -0.68386580753E-01 -0.36901001412E-01  0.80309945595E-01  0.88706713145E+00  0.88000000000E+00 0. -1.
        -11    1    4    4    0    0  0.41322435636E-01  0.79447842842E-02 -0.31553192116E-01  0.52597797843E-01  0.51100000000E-03 0. -1.
         11    1    4    4    0    0  0.44470797113E-01  0.20821813454E-01 -0.63338333558E-01  0.80144902085E-01  0.51100000000E-03 0.  1.
</event>
<event>
 7    1  0.1093753E+005  0.1043930E+01  0.7957747E-01            NaN
         13   -1    0    0    0    0  0.00000000000E+00  0.00000000000E+00  0.74505805969E-08  0.10566000000E+00  0.10566000000E+00 0.  1.
     999900   -1    0    0    0    0 -0.00000000000E+00 -0.00000000000E+00 -0.74505805969E-08  0.93827000000E+00  0.93827000000E+00 0.  1.
     999903    2    1    2    0    0 -0.17663760070E-01  0.10670455615E+00 -0.12514759198E-01  0.11085254021E+00  0.20827763902E-01 0.  0.
         14    1    1    2    0    0  0.10621463245E-03  0.66932164267E-02  0.44549442385E-01  0.45049564310E-01  0.00000000000E+00 0.  1.
     999901    1    1    2    0    0  0.17557545438E-01 -0.11339777258E+00 -0.32034683187E-01  0.88802789548E+00  0.88000000000E+00 0.  1.
        -11    1    3    3    0    0 -0.19312381118E-01  0.90238388150E-01 -0.43330966538E-02  0.92384910066E-01  0.51100000000E-03 0. -1.
         11    1    3    3    0    0  0.16486210478E-02  0.16466168003E-01 -0.81816625444E-02  0.18467630142E-01  0.51100000000E-03 0.  1.
</event>
<event>
 8    1  0.1093753E+005  0.1043930E+01  0.7957747E-01            NaN
         13   -1    0    0    0    0  0.00000000000E+00  0.00000000000E+00  0.74505805969E-08  0.10566000000E+00  0.10566000000E+00 0.  1.
     999900   -1    0    0    0    0 -0.00000000000E+00 -0.00000000000E+00 -0.74505805969E-08  0.93827000000E+00  0.93827000000E+00 0. -1.
     999902    2    1    2    0    0  0.17389035772E-01 -0.14154323107E-01 -0.70966573656E-02  0.10204122201E+01  0.10201411730E+01 0.  0.
     999903    2    3    3    0    0 -0.53218187998E-01  0.16524255692E-01 -0.11612949476E+00  0.13034777583E+00  0.19981405135E-01 0.  0.
         14    1    1    2    0    0 -0.17389035772E-01  0.14154323107E-01  0.70966573656E-02  0.23517779944E-01  0.00000000000E+00 0.  1.
     999901    1    3    3    0    0  0.70607223770E-01 -0.30678578800E-01  0.10903283739E+00  0.89006444423E+00  0.88000000000E+00 0.  1.
        -11    1    4    4    0    0 -0.45770046009E-01  0.12504146212E-01 -0.78100076560E-01  0.91384538429E-01  0.51100000000E-03 0. -1.
         11    1    4    4    0    0 -0.74481419888E-02  0.40201094807E-02 -0.38029418198E-01  0.38963237402E-01  0.51100000000E-03 0.  1.
</event>
<event>
 8    1  0.1093753E+005  0.1043930E+01  0.7957747E-01            NaN
         13   -1    0    0    0    0  0.00000000000E+00  0.00000000000E+00  0.74505805969E-08  0.10566000000E+00  0.10566000000E+00 0. -1.
     999900   -1    0    0    0    0 -0.00000000000E+00 -0.00000000000E+00 -0.74505805969E-08  0.93827000000E+00  0.93827000000E+00 0. -1.
     999902    2    1    2    0    0 -0.10940569146E-01  0.15991090385E-01  0.10274603727E-01  0.10219987778E+01  0.10217634381E+01 0.  0.
     999903    2    3    3    0    0 -0.12938091272E+00 -0.22518743349E-01 -0.75975959072E-02  0.13304965789E+00  0.19949276260E-01 0.  0.
         14    1    1    2    0    0  0.10940569146E-01 -0.15991090385E-01 -0.10274603727E-01  0.21931222189E-01  0.00000000000E+00 0.  1.
     999901    1    3    3    0    0  0.11844034358E+00  0.38509833734E-01  0.17872199634E-01  0.88894911992E+00  0.88000000000E+00 0.  1.
        -11    1    4    4    0    0 -0.35920804912E-01  0.25062745921E-02 -0.18422642950E-03  0.36012229842E-01  0.51100000000E-03 0. -1.
         11    1    4    4    0    0 -0.93460107811E-01 -0.25025017941E-01 -0.74133694777E-02  0.97037428052E-01  0.51100000000E-03 0.  1.
</event>
<event>
 8    1  0.1093753E+005  0.1043930E+01  0.7957747E-01            NaN
         13   -1    0    0    0    0  0.00000000000E+00  0.00000000000E+00  0.74505805969E-08  0.10566000000E+00  0.10566000000E+00 0.  1.
     999900   -1    0    0    0    0 -0.00000000000E+00 -0.00000000000E+00 -0.74505805969E-08  0.93827000000E+00  0.93827000000E+00 0. -1.
     999902    2    1    2    0    0  0.14915367418E-01  0.17991186332E-01 -0.34366398038E-02  0.10203087921E+01  0.10200353277E+01 0.  0.
     999903    2    3    3    0    0 -0.89484760823E-01  0.93218414359E-01  0.49081974016E-02  0.13091115382E+00  0.20406974266E-01 0.  0.
         14    1    1    2    0    0 -0.14915367418E-01 -0.17991186332E-01  0.34366398038E-02  0.23621207928E-01  0.00000000000E+00 0.  1.
     999901    1    3    3    0    0  0.10440012824E+00 -0.75227228027E-01 -0.83448372053E-02  0.88939763825E+00  0.88000000000E+00 0.  1.
        -11    1    4    4    0    0 -0.39312449157E-01  0.27692309538E-01  0.52970379871E-02  0.48380289362E-01  0.51100000000E-03 0. -1.
         11    1    4    4    0    0 -0.50172311666E-01  0.65526104821E-01 -0.38884058558E-03  0.82530864462E-01  0.51100000000E-03 0.  1.
</event>
<event>
 8    1  0.1093753E+005  0.1043930E+01  0.7957747E-01            NaN
         13   -1    0    0    0    0  0.00000000000E+00  0.00000000000E+00  0.74505805969E-08  0.10566000000E+00  0.10566000000E+00 0.  1.
     999900   -1    0    0    0    0 -0.00000000000E+00 -0.00000000000E+00 -0.74505805969E-08  0.93827000000E+00  0.93827000000E+00 0. -1.
     999902    2    1    2    0    0  0.63807419444E-02  0.99395128127E-02 -0.20202235420E-01  0.10205283313E+01  0.10202599849E+01 0.  0.
     999903    2    3    3    0    0  0.12480485717E+00  0.90635479025E-04  0.34705752631E-01  0.13084515250E+00  0.18431062926E-01 0.  0.
         14    1    1    2    0    0 -0.63807419444E-02 -0.99395128127E-02  0.20202235420E-01  0.23401668716E-01  0.00000000000E+00 0.  1.
     999901    1    3    3    0    0 -0.11842411522E+00  0.98488773337E-02 -0.54907988051E-01  0.88968317878E+00  0.88000000000E+00 0. -1.
        -11    1    4    4    0    0  0.42081843366E-01 -0.39477922941E-02  0.19857125234E-01  0.46701532615E-01  0.51100000000E-03 0. -1.
         11    1    4    4    0    0  0.82723013803E-01  0.40384277732E-02  0.14848627397E-01  0.84143619889E-01  0.51100000000E-03 0.  1.
</event>
<event>
 8    1  0.1093753E+005  0.1043930E+01  0.7957747E-01            NaN
         13   -1    0    0    0    0  0.00000000000E+00  0.00000000000E+00  0.74505805969E-08  0.10566000000E+00  0.10566000000E+00 0.  1.
     999900   -1    0    0    0    0 -0.00000000000E+00 -0.00000000000E+00 -0.74505805969E-08  0.93827000000E+00  0.93827000000E+00 0. -1.
     999902    2    1    2    0    0  0.23424657699E-01 -0.50504954587E-02 -0.27028740345E-02  0.10198151162E+01  0.10195299621E+01 0.  0.
     999903    2    3    3    0    0 -0.79666495349E-01 -0.58166329696E-02  0.98114675903E-01  0.12807942039E+00  0.19931497682E-01 0.  0.
         14    1    1    2    0    0 -0.23424657699E-01  0.50504954587E-02  0.27028740345E-02  0.24114883801E-01  0.00000000000E+00 0.  1.
     999901    1    3    3    0    0  0.10309115305E+00  0.76613751084E-03 -0.10081754994E+00  0.89173569581E+00  0.88000000000E+00 0. -1.
        -11    1    4    4    0    0 -0.65917358491E-01  0.29334101322E-02  0.77099221932E-01  0.10148031429E+00  0.51100000000E-03 0. -1.
         11    1    4    4    0    0 -0.13749136858E-01 -0.87500431018E-02  0.21015453971E-01  0.26599106098E-01  0.51100000000E-03 0.  1.
</event>
<event>
 8    1  0.1093753E+005  0.1043930E+01  0.7957747E-01            NaN
         13   -1    0    0    0    0  0.00000000000E+00  0.00000000000E+00  0.74505805969E-08  0.10566000000E+00  0.10566000000E+00 0. -1.
     999900   -1    0    0    0    0 -0.00000000000E+00 -0.00000000000E+00 -0.74505805969E-08  0.93827000000E+00  0.93827000000E+00 0.  1.
     999902    2    1    2    0    0 -0.20271005195E-01 -0.88694312728E-02  0.85431437979E-02  0.10202115311E+01  0.10199357834E+01 0.  0.
     999903    2    3    3    0    0 -0.34665692109E-01 -0.75865770549E-01  0.10121655452E+00  0.13269585371E+00  0.20151261310E-01 0.  0.
         14    1    1    2    0    0  0.20271005195E-01  0.88694312728E-02 -0.85431437979E-02  0.23718468936E-01  0.00000000000E+00 0.  1.
     999901    1    3    3    0    0  0.14394686914E-01  0.66996339276E-01 -0.92673410726E-01  0.88751567735E+00  0.88000000000E+00 0.  1.
        -11    1    4    4    0    0 -0.32378003652E-01 -0.52595361899E-01  0.80400006825E-01  0.10138554844E+00  0.51100000000E-03 0. -1.
         11    1    4    4    0    0 -0.22876884567E-02 -0.23270408650E-01  0.20816547699E-01  0.31310305274E-01  0.51100000000E-03 0.  1.
</event>
<event>
 8    1  0.1093753E+005  0.1043930E+01  0.7957747E-01            NaN
         13   -1    0    0    0    0  0.00000000000E+00  0.00000000000E+00  0.74505805969E-08  0.10566000000E+00  0.10566000000E+00 0.  1.
     999900   -1    0    0    0    0 -0.00000000000E+00 -0.00000000000E+00 -0.74505805969E-08  0.93827000000E+00  0.93827000000E+00 0.  1.
     999902    2    1    2    0    0  0.78739174205E-02  0.21577561649E-01  0.47420120748E-02  0.10204762920E+01  0.10202067369E+01 0.  0.
     999903    2    3    3    0    0  0.68526925814E-01 -0.93612191538E-01  0.53931251291E-01  0.12954024043E+00  0.20320237656E-01 0.  0.
         14    1    1    2    0    0 -0.78739174205E-02 -0.21577561649E-01 -0.47420120748E-02  0.23453708039E-01  0.00000000000E+00 0.  1.
     999901    1    3    3    0    0 -0.60653008393E-01  0.11518975319E+00 -0.49189239216E-01  0.89093605153E+00  0.88000000000E+00 0.  1.
        -11    1    4    4    0    0  0.44314996960E-01 -0.44447153614E-01  0.32619687930E-01  0.70736649494E-01  0.51100000000E-03 0.  1.
         11    1    4    4    0    0  0.24211928853E-01 -0.49165037924E-01  0.21311563361E-01  0.58803590934E-01  0.51100000000E-03 0. -1.
</event>
<event>
 8    1  0.1093753E+005  0.1043930E+01  0.7957747E-01            NaN
         13   -1    0    0    0    0  0.00000000000E+00  0.00000000000E+00  0.74505805969E-08  0.10566000000E+00  0.10566000000E+00 0.  1.
     999900   -1    0    0    0    0 -0.00000000000E+00 -0.00000000000E+00 -0.74505805969E-08  0.93827000000E+00  0.93827000000E+00 0.  1.
     999902    2    1    2    0    0  0.13224478145E-01 -0.17354314317E-01 -0.84249889881E-02  0.10205411247E+01  0.10202730751E+01 0.  0.
     999903    2    3    3    0    0  0.99259640591E-01  0.44855483089E-01 -0.71664762303E-01  0.13190656709E+00  0.19975326614E-01 0.  0.
         14    1    1    2    0    0 -0.13224478145E-01  0.17354314317E-01  0.84249889881E-02  0.23388875284E-01  0.00000000000E+00 0.  1.
     999901    1    3    3    0    0 -0.86035162446E-01 -0.62209797406E-01  0.63239773315E-01  0.88863455762E+00  0.88000000000E+00 0.  1.
        -11    1    4    4    0    0  0.57220550421E-01  0.35992478714E-01 -0.47387264072E-01  0.82555822519E-01  0.51100000000E-03 0.  1.
         11    1    4    4    0    0  0.42039090170E-01  0.88630043748E-02 -0.24277498230E-01  0.49350744575E-01  0.51100000000E-03 0. -1.
</event>
<event>
 8    1  0.1093753E+005  0.1043930E+01  0.7957747E-01            NaN
         13   -1    0    0    0    0  0.00000000000E+00  0.00000000000E+00  0.74505805969E-08  0.10566000000E+00  0.10566000000E+00 0. -1.
     999900   -1    0    0    0    0 -0.00000000000E+00 -0.00000000000E+00 -0.74505805969E-08  0.93827000000E+00  0.93827000000E+00 0. -1.
     999902    2    1    2    0    0 -0.74658999595E-02  0.83447566423E-02 -0.20536042445E-01  0.10205397528E+01  0.10202716713E+01 0.  0.
     999903    2    3    3    0    0 -0.22910096449E-03 -0.12827784546E+00 -0.58382055905E-02  0.12984668945E+00  0.19256686979E-01 0.  0.
         14    1    1    2    0    0  0.74658999595E-02 -0.83447566423E-02  0.20536042445E-01  0.23390247218E-01  0.00000000000E+00 0. -1.
     999901    1    3    3    0    0 -0.72367989950E-02  0.13662260210E+00 -0.14697836854E-01  0.89069306333E+00  0.88000000000E+00 0. -1.
        -11    1    4    4    0    0 -0.75372198891E-02 -0.51325935827E-01 -0.81342792519E-02  0.52512750757E-01  0.51100000000E-03 0. -1.
         11    1    4    4    0    0  0.73081189246E-02 -0.76951909631E-01  0.22960736614E-02  0.77333938690E-01  0.51100000000E-03 0.  1.
</event>
<event>
 8    1  0.1093753E+005  0.1043930E+01  0.7957747E-01            NaN
         13   -1    0    0    0    0  0.00000000000E+00  0.00000000000E+00  0.74505805969E-08  0.10566000000E+00  0.10566000000E+00 0. -1.
     999900   -1    0    0    0    0 -0.00000000000E+00 -0.00000000000E+00 -0.74505805969E-08  0.93827000000E+00  0.93827000000E+00 0.  1.
     999902    2    1    2    0    0 -0.28208441459E-02  0.24212909920E-01  0.63329897369E-02  0.10187441125E+01  0.10184327361E+01 0.  0.
     999903    2    3    3    0    0 -0.46287315987E-02 -0.11496239282E+00  0.49288802168E-01  0.12676976583E+00  0.20085083823E-01 0.  0.
         14    1    1    2    0    0  0.28208441459E-02 -0.24212909920E-01 -0.63329897369E-02  0.25185887467E-01  0.00000000000E+00 0. -1.
     999901    1    3    3    0    0  0.18078874528E-02  0.13917530274E+00 -0.42955812431E-01  0.89197434670E+00  0.88000000000E+00 0. -1.
        -11    1    4    4    0    0  0.48337126917E-02 -0.58769039929E-01  0.32642614109E-01  0.67401529726E-01  0.51100000000E-03 0. -1.
         11    1    4    4    0    0 -0.94624442905E-02 -0.56193352886E-01  0.16646188059E-01  0.59368236107E-01  0.51100000000E-03 0.  1.
</event>
<event>
 8    1  0.1093753E+005  0.1043930E+01  0.7957747E-01            NaN
         13   -1    0    0    0    0  0.00000000000E+00  0.00000000000E+00  0.74505805969E-08  0.10566000000E+00  0.10566000000E+00 0.  1.
     999900   -1    0    0    0    0 -0.00000000000E+00 -0.00000000000E+00 -0.74505805969E-08  0.93827000000E+00  0.93827000000E+00 0.  1.
     999902    2    1    2    0    0  0.39602204683E-02  0.58839587985E-02  0.22276434534E-01  0.10205517226E+01  0.10202839187E+01 0.  0.
     999903    2    3    3    0    0 -0.38830259730E-01 -0.11097775204E+00 -0.47416321533E-01  0.12906713785E+00  0.24210906729E-01 0.  0.
         14    1    1    2    0    0 -0.39602204683E-02 -0.58839587985E-02 -0.22276434534E-01  0.23378277371E-01  0.00000000000E+00 0. -1.
     999901    1    3    3    0    0  0.42790480198E-01  0.11686171084E+00  0.69692756066E-01  0.89148458478E+00  0.88000000000E+00 0.  1.
        -11    1    4    4    0    0 -0.20191377110E-02 -0.35878675756E-01 -0.19534011355E-01  0.40904706474E-01  0.51100000000E-03 0.  1.
         11    1    4    4    0    0 -0.36811122019E-01 -0.75099076288E-01 -0.27882310177E-01  0.88162431372E-01  0.51100000000E-03 0. -1.
</event>
<event>
 8    1  0.1093753E+005  0.1043930E+01  0.7957747E-01            NaN
         13   -1    0    0    0    0  0.00000000000E+00  0.00000000000E+00  0.74505805969E-08  0.10566000000E+00  0.10566000000E+00 0. -1.
     999900   -1    0    0    0    0 -0.00000000000E+00 -0.00000000000E+00 -0.74505805969E-08  0.93827000000E+00  0.93827000000E+00 0. -1.
     999902    2    1    2    0    0 -0.74261164156E-02  0.18434313700E-01  0.11583468078E-01  0.10209267859E+01  0.10206676023E+01 0.  0.
     999903    2    3    3    0    0  0.20666816738E-01  0.89684374728E-01  0.94789918154E-01  0.13369000948E+00  0.20432465973E-01 0.  0.
         14    1    1    2    0    0  0.74261164156E-02 -0.18434313700E-01 -0.11583468078E-01  0.23003214108E-01  0.00000000000E+00 0.  1.
     999901    1    3    3    0    0 -0.28092933154E-01 -0.71250061028E-01 -0.83206450077E-01  0.88723677642E+00  0.88000000000E+00 0. -1.
        -11    1    4    4    0    0  0.19216503109E-01  0.47330055403E-01  0.60430588718E-01  0.79129800391E-01  0.51100000000E-03 0. -1.
         11    1    4    4    0    0  0.14503136289E-02  0.42354319325E-01  0.34359329436E-01  0.54560209085E-01  0.51100000000E-03 0.  1.
</event>
<event>
 8    1  0.1093753E+005  0.1043930E+01  0.7957747E-01            NaN
         13   -1    0    0    0    0  0.00000000000E+00  0.00000000000E+00  0.74505805969E-08  0.10566000000E+00  0.10566000000E+00 0.  1.
     999900   -1    0    0    0    0 -0.00000000000E+00 -0.00000000000E+00 -0.74505805969E-08  0.93827000000E+00  0.93827000000E+00 0.  1.
     999902    2    1    2    0    0  0.21452401236E-01 -0.24923271060E-02  0.10302332693E-01  0.10200018728E+01  0.10197211703E+01 0.  0.
     999903    2    3    3    0    0  0.31696439383E-01 -0.26614604828E-01  0.12401222865E+00  0.13229878895E+00  0.20271537804E-01 0.  0.
         14    1    1    2    0    0 -0.21452401236E-01  0.24923271060E-02 -0.10302332693E-01  0.23928127217E-01  0.00000000000E+00 0. -1.
     999901    1    3    3    0    0 -0.10244038147E-01  0.24122277722E-01 -0.11370989596E+00  0.88770308383E+00  0.88000000000E+00 0.  1.
        -11    1    4    4    0    0  0.47392657563E-02  0.83876037986E-03  0.34896084109E-01  0.35230128669E-01  0.51100000000E-03 0.  1.
         11    1    4    4    0    0  0.26957173627E-01 -0.27453365208E-01  0.89116144539E-01  0.97068660286E-01  0.51100000000E-03 0. -1.
</event>
<event>
 8    1  0.1093753E+005  0.1043930E+01  0.7957747E-01            NaN
         13   -1    0    0    0    0  0.00000000000E+00  0.00000000000E+00  0.74505805969E-08  0.10566000000E+00  0.10566000000E+00 0. -1.
     999900   -1    0    0    0    0 -0.00000000000E+00 -0.00000000000E+00 -0.74505805969E-08  0.93827000000E+00  0.93827000000E+00 0. -1.
     999902    2    1    2    0    0  0.87412407812E-02 -0.23811725320E-01  0.33898819150E-02  0.10183390084E+01  0.10180174051E+01 0.  0.
     999903    2    3    3    0    0  0.83926152032E-01 -0.99500100733E-01 -0.97131505343E-02  0.13179899771E+00  0.18241750530E-01 0.  0.
         14    1    1    2    0    0 -0.87412407812E-02  0.23811725320E-01 -0.33898819150E-02  0.25590991628E-01  0.00000000000E+00 0.  1.
     999901    1    3    3    0    0 -0.75184911251E-01  0.75688375413E-01  0.13103032449E-01  0.88654001067E+00  0.88000000000E+00 0. -1.
        -11    1    4    4    0    0  0.34623674894E-01 -0.42932424326E-01  0.48144994442E-02  0.55366347609E-01  0.51100000000E-03 0. -1.
         11    1    4    4    0    0  0.49302477138E-01 -0.56567676407E-01 -0.14527649979E-01  0.76432650097E-01  0.51100000000E-03 0.  1.
</event>
<event>
 8    1  0.1093753E+005  0.1043930E+01  0.7957747E-01            NaN
         13   -1    0    0    0    0  0.00000000000E+00  0.00000000000E+00  0.74505805969E-08  0.10566000000E+00  0.10566000000E+00 0.  1.
     999900   -1    0    0    0    0 -0.00000000000E+00 -0.00000000000E+00 -0.74505805969E-08  0.93827000000E+00  0.93827000000E+00 0. -1.
     999902    2    1    2    0    0  0.82715435524E-02  0.13741465242E-01 -0.15910601571E-01  0.10213381089E+01  0.10210882132E+01 0.  0.
     999903    2    3    3    0    0  0.23837722265E-01  0.90661031915E-01 -0.94182984703E-01  0.13438518368E+00  0.20032056139E-01 0.  0.
         14    1    1    2    0    0 -0.82715435524E-02 -0.13741465242E-01  0.15910601571E-01  0.22591891069E-01  0.00000000000E+00 0. -1.
     999901    1    3    3    0    0 -0.15566178713E-01 -0.76919566673E-01  0.78272383132E-01  0.88695292525E+00  0.88000000000E+00 0. -1.
        -11    1    4    4    0    0  0.22523765322E-01  0.63647266293E-01 -0.76667770056E-01  0.10215920222E+00  0.51100000000E-03 0. -1.
         11    1    4    4    0    0  0.13139569433E-02  0.27013765623E-01 -0.17515214647E-01  0.32225981461E-01  0.51100000000E-03 0.  1.
</event>
<event>
 8    1  0.1093753E+005  0.1043930E+01  0.7957747E-01            NaN
         13   -1    0    0    0    0  0.00000000000E+00  0.00000000000E+00  0.74505805969E-08  0.10566000000E+00  0.10566000000E+00 0.  1.
     999900   -1    0    0    0    0 -0.00000000000E+00 -0.00000000000E+00 -0.74505805969E-08  0.93827000000E+00  0.93827000000E+00 0. -1.
     999902    2    1    2    0    0  0.37902389063E-02  0.37032160084E-02 -0.23383228883E-01  0.10199538637E+01  0.10196720203E+01 0.  0.
     999903    2    3    3    0    0  0.12211024035E+00 -0.14742484256E-01  0.36535670906E-01  0.12982458029E+00  0.19781677333E-01 0.  0.
         14    1    1    2    0    0 -0.37902389063E-02 -0.37032160084E-02  0.23383228883E-01  0.23976136319E-01  0.00000000000E+00 0.  1.
     999901    1    3    3    0    0 -0.11832000144E+00  0.18445700264E-01 -0.59918899789E-01  0.89012928339E+00  0.88000000000E+00 0. -1.
        -11    1    4    4    0    0  0.81850875683E-01 -0.12134826374E-01  0.15019788998E-01  0.84099197640E-01  0.51100000000E-03 0. -1.
         11    1    4    4    0    0  0.40259364668E-01 -0.26076578817E-02  0.21515881908E-01  0.45725382649E-01  0.51100000000E-03 0.  1.
</event>
<event>
 8    1  0.1093753E+005  0.1043930E+01  0.7957747E-01            NaN
         13   -1    0    0    0    0  0.00000000000E+00  0.00000000000E+00  0.74505805969E-08  0.10566000000E+00  0.10566000000E+00 0. -1.
     999900   -1    0    0    0    0 -0.00000000000E+00 -0.00000000000E+00 -0.74505805969E-08  0.93827000000E+00  0.93827000000E+00 0. -1.
     999902    2    1    2    0    0 -0.17638977691E-01 -0.70839860174E-02 -0.14323758555E-01  0.10201290242E+01  0.10198513320E+01 0.  0.
     999903    2    3    3    0    0 -0.82508323215E-01  0.55516172049E-01  0.82553197819E-01  0.13023467287E+00  0.16011582958E-01 0.  0.
         14    1    1    2    0    0  0.17638977691E-01  0.70839860174E-02  0.14323758555E-01  0.23800975841E-01  0.00000000000E+00 0. -1.
     999901    1    3    3    0    0  0.64869345524E-01 -0.62600158066E-01 -0.96876956374E-01  0.88989435129E+00  0.88000000000E+00 0. -1.
        -11    1    4    4    0    0 -0.75840060725E-01  0.50188741233E-01  0.80469630042E-01  0.12143412633E+00  0.51100000000E-03 0. -1.
         11    1    4    4    0    0 -0.66682624902E-02  0.53274308162E-02  0.20835677768E-02  0.88005465410E-02  0.51100000000E-03 0.  1.
</event>
<event>
 8    1  0.1093753E+005  0.1043930E+01  0.7957747E-01            NaN
         13   -1    0    0    0    0  0.00000000000E+00  0.00000000000E+00  0.74505805969E-08  0.10566000000E+00  0.10566000000E+00 0. -1.
     999900   -1    0    0    0    0 -0.00000000000E+00 -0.00000000000E+00 -0.74505805969E-08  0.93827000000E+00  0.93827000000E+00 0.  1.
     999902    2    1    2    0    0 -0.85880584254E-02  0.16174329251E-01  0.16303499415E-01  0.10194112772E+01  0.10191163743E+01 0.  0.
     999903    2    3    3    0    0  0.68613901157E-01 -0.92844913444E-01  0.52862683615E-01  0.12857913152E+00  0.20250539721E-01 0.  0.
         14    1    1    2    0    0  0.85880584254E-02 -0.16174329251E-01 -0.16303499415E-01  0.24518722793E-01  0.00000000000E+00 0.  1.
     999901    1    3    3    0    0 -0.77201959582E-01  0.10901924269E+00 -0.36559184200E-01  0.89083214569E+00  0.88000000000E+00 0.  1.
        -11    1    4    4    0    0  0.36547117726E-01 -0.65685832451E-01  0.32959655306E-01  0.82078745104E-01  0.51100000000E-03 0.  1.
         11    1    4    4    0    0  0.32066783431E-01 -0.27159080992E-01  0.19903028309E-01  0.46500386416E-01  0.51100000000E-03 0. -1.
</event>
<event>
 8    1  0.1093753E+005  0.1043930E+01  0.7957747E-01            NaN
         13   -1    0    0    0    0  0.00000000000E+00  0.00000000000E+00  0.74505805969E-08  0.10566000000E+00  0.10566000000E+00 0.  1.
     999900   -1    0    0    0    0 -0.00000000000E+00 -0.00000000000E+00 -0.74505805969E-08  0.93827000000E+00  0.93827000000E+00 0. -1.
     999902    2    1    2    0    0 -0.33435463600E-03  0.17376924568E-01 -0.16116409785E-01  0.10202275114E+01  0.10199521396E+01 0.  0.
     999903    2    3    3    0    0 -0.46542804901E-01 -0.11676771850E+00  0.14949701797E-01  0.12832218605E+00  0.21027531401E-01 0.  0.
         14    1    1    2    0    0  0.33435463600E-03 -0.17376924568E-01  0.16116409785E-01  0.23702488579E-01  0.00000000000E+00 0.  1.
     999901    1    3    3    0    0  0.46208450265E-01  0.13414464307E+00 -0.31066111582E-01  0.89190532537E+00  0.88000000000E+00 0. -1.
        -11    1    4    4    0    0 -0.13319688334E-01 -0.42265259937E-01  0.14871777655E-01  0.46746092740E-01  0.51100000000E-03 0. -1.
         11    1    4    4    0    0 -0.33223116567E-01 -0.74502458562E-01  0.77924141809E-04  0.81576093308E-01  0.51100000000E-03 0.  1.
</event>
<event>
 8    1  0.1093753E+005  0.1043930E+01  0.7957747E-01            NaN
         13   -1    0    0    0    0  0.00000000000E+00  0.00000000000E+00  0.74505805969E-08  0.10566000000E+00  0.10566000000E+00 0.  1.
     999900   -1    0    0    0    0 -0.00000000000E+00 -0.00000000000E+00 -0.74505805969E-08  0.93827000000E+00  0.93827000000E+00 0. -1.
     999902    2    1    2    0    0  0.15279399526E-01  0.15750196817E-01  0.98486031123E-02  0.10198774797E+01  0.10195938161E+01 0.  0.
     999903    2    3    3    0    0  0.10218215520E-01  0.11956330185E+00 -0.49957187792E-01  0.13174488319E+00  0.21475533879E-01 0.  0.
         14    1    1    2    0    0 -0.15279399526E-01 -0.15750196817E-01 -0.98486031123E-02  0.24052520303E-01  0.00000000000E+00 0. -1.
     999901    1    3    3    0    0  0.50611840059E-02 -0.10381310503E+00  0.59805790904E-01  0.88813259651E+00  0.88000000000E+00 0.  1.
        -11    1    4    4    0    0 -0.61962044368E-02  0.34648093688E-01 -0.10936337153E-01  0.36861198258E-01  0.51100000000E-03 0. -1.
         11    1    4    4    0    0  0.16414419957E-01  0.84915208164E-01 -0.39020850639E-01  0.94883684928E-01  0.51100000000E-03 0.  1.
</event>
<event>
 8    1  0.1093753E+005  0.1043930E+01  0.7957747E-01            NaN
         13   -1    0    0    0    0  0.00000000000E+00  0.00000000000E+00  0.74505805969E-08  0.10566000000E+00  0.10566000000E+00 0.  1.
     999900   -1    0    0    0    0 -0.00000000000E+00 -0.00000000000E+00 -0.74505805969E-08  0.93827000000E+00  0.93827000000E+00 0.  1.
     999902    2    1    2    0    0 -0.65867043025E-02 -0.17100351264E-01 -0.15343520788E-01  0.10200295750E+01  0.10197495298E+01 0.  0.
     999903    2    3    3    0    0  0.95656062657E-01 -0.69864930271E-01  0.50082331443E-01  0.13013170086E+00  0.19870300463E-01 0.  0.
         14    1    1    2    0    0  0.65867043025E-02  0.17100351264E-01  0.15343520788E-01  0.23900425039E-01  0.00000000000E+00 0. -1.
     999901    1    3    3    0    0 -0.10224276696E+00  0.52764579007E-01 -0.65425852230E-01  0.88989787410E+00  0.88000000000E+00 0.  1.
        -11    1    4    4    0    0  0.10287162363E-01 -0.12496784899E-01  0.11641538212E-02  0.16236123842E-01  0.51100000000E-03 0.  1.
         11    1    4    4    0    0  0.85368900294E-01 -0.57368145372E-01  0.48918177622E-01  0.11389557702E+00  0.51100000000E-03 0. -1.
</event>
<event>
 8    1  0.1093753E+005  0.1043930E+01  0.7957747E-01            NaN
         13   -1    0    0    0    0  0.00000000000E+00  0.00000000000E+00  0.74505805969E-08  0.10566000000E+00  0.10566000000E+00 0.  1.
     999900   -1    0    0    0    0 -0.00000000000E+00 -0.00000000000E+00 -0.74505805969E-08  0.93827000000E+00  0.93827000000E+00 0. -1.
     999902    2    1    2    0    0  0.70755314658E-02 -0.21949820972E-01 -0.40164366109E-02  0.10205208234E+01  0.10202523028E+01 0.  0.
     999903    2    3    3    0    0 -0.10322024185E-01  0.12522671446E+00 -0.15357511144E-01  0.12805669107E+00  0.19349128702E-01 0.  0.
         14    1    1    2    0    0 -0.70755314658E-02  0.21949820972E-01  0.40164366109E-02  0.23409176604E-01  0.00000000000E+00 0. -1.
     999901    1    3    3    0    0  0.17397555651E-01 -0.14717653543E+00  0.11341074533E-01  0.89246413233E+00  0.88000000000E+00 0.  1.
        -11    1    4    4    0    0  0.41753622797E-02  0.21074543352E-01 -0.68499816709E-02  0.22555562453E-01  0.51100000000E-03 0.  1.
         11    1    4    4    0    0 -0.14497386465E-01  0.10415217110E+00 -0.85075294732E-02  0.10550112861E+00  0.51100000000E-03 0. -1.
</event>
<event>
 8    1  0.1093753E+005  0.1043930E+01  0.7957747E-01            NaN
         13   -1    0    0    0    0  0.00000000000E+00  0.00000000000E+00  0.74505805969E-08  0.10566000000E+00  0.10566000000E+00 0. -1.
     999900   -1    0    0    0    0 -0.00000000000E+00 -0.00000000000E+00 -0.74505805969E-08  0.93827000000E+00  0.93827000000E+00 0.  1.
     999902    2    1    2    0    0 -0.70472449925E-02 -0.21298123123E-01  0.82399348666E-02  0.10200308319E+01  0.10197508165E+01 0.  0.
     999903    2    3    3    0    0  0.17823047015E-01 -0.10604869087E+00 -0.73649037227E-01  0.13182646693E+00  0.19749705279E-01 0.  0.
         14    1    1    2    0    0  0.70472449925E-02  0.21298123123E-01 -0.82399348666E-02  0.23899168127E-01  0.00000000000E+00 0.  1.
     999901    1    3    3    0    0 -0.24870292007E-01  0.84750567744E-01  0.81888972093E-01  0.88820436495E+00  0.88000000000E+00 0. -1.
        -11    1    4    4    0    0  0.16521721808E-01 -0.43693782584E-01 -0.27172254622E-01  0.54043560858E-01  0.51100000000E-03 0.  1.
         11    1    4    4    0    0  0.13013252074E-02 -0.62354908284E-01 -0.46476782604E-01  0.77782906069E-01  0.51100000000E-03 0. -1.
</event>
<event>
 8    1  0.1093753E+005  0.1043930E+01  0.7957747E-01            NaN
         13   -1    0    0    0    0  0.00000000000E+00  0.00000000000E+00  0.74505805969E-08  0.10566000000E+00  0.10566000000E+00 0. -1.
     999900   -1    0    0    0    0 -0.00000000000E+00 -0.00000000000E+00 -0.74505805969E-08  0.93827000000E+00  0.93827000000E+00 0. -1.
     999902    2    1    2    0    0 -0.19795956367E-01  0.26103887121E-03 -0.12407609397E-01  0.10205655655E+01  0.10202980822E+01 0.  0.
     999903    2    3    3    0    0  0.12657873480E+00 -0.81528433691E-03  0.60583212316E-02  0.12828326750E+00  0.19926180560E-01 0.  0.
         14    1    1    2    0    0  0.19795956367E-01 -0.26103887121E-03  0.12407609397E-01  0.23364434526E-01  0.00000000000E+00 0. -1.
     999901    1    3    3    0    0 -0.14637469117E+00  0.10763232081E-02 -0.18465930629E-01  0.89228229798E+00  0.88000000000E+00 0. -1.
        -11    1    4    4    0    0  0.87683172552E-01  0.14715744514E-02  0.13149007434E-01  0.88677290203E-01  0.51100000000E-03 0. -1.
         11    1    4    4    0    0  0.38895562248E-01 -0.22868587883E-02 -0.70906862029E-02  0.39605977295E-01  0.51100000000E-03 0.  1.
</event>
<event>
 8    1  0.1093753E+005  0.1043930E+01  0.7957747E-01            NaN
         13   -1    0    0    0    0  0.00000000000E+00  0.00000000000E+00  0.74505805969E-08  0.10566000000E+00  0.10566000000E+00 0.  1.
     999900   -1    0    0    0    0 -0.00000000000E+00 -0.00000000000E+00 -0.74505805969E-08  0.93827000000E+00  0.93827000000E+00 0. -1.
     999902    2    1    2    0    0 -0.10731425438E-01 -0.50880968858E-02  0.20433786107E-01  0.10202954525E+01  0.10200216755E+01 0.  0.
     999903    2    3    3    0    0 -0.11445532486E+00 -0.13707041305E-01  0.63257064248E-01  0.13312761793E+00  0.20823114768E-01 0.  0.
         14    1    1    2    0    0  0.10731425438E-01  0.50880968858E-02 -0.20433786107E-01  0.23634547521E-01  0.00000000000E+00 0. -1.
     999901    1    3    3    0    0  0.10372389942E+00  0.86189444188E-02 -0.42823278142E-01  0.88716783455E+00  0.88000000000E+00 0.  1.
        -11    1    4    4    0    0 -0.75101828679E-01  0.49351981915E-03  0.44260555093E-01  0.87176752009E-01  0.51100000000E-03 0. -1.
         11    1    4    4    0    0 -0.39353496176E-01 -0.14200561124E-01  0.18996509155E-01  0.45950865918E-01  0.51100000000E-03 0.  1.
</event>
<event>
 8    1  0.1093753E+005  0.1043930E+01  0.7957747E-01            NaN
         13   -1    0    0    0    0  0.00000000000E+00  0.00000000000E+00  0.74505805969E-08  0.10566000000E+00  0.10566000000E+00 0.  1.
     999900   -1    0    0    0    0 -0.00000000000E+00 -0.00000000000E+00 -0.74505805969E-08  0.93827000000E+00  0.93827000000E+00 0. -1.
     999902    2    1    2    0    0 -0.27705718712E-02  0.20710101143E-01  0.10818630005E-01  0.10204007180E+01  0.10201294026E+01 0.  0.
     999903    2    3    3    0    0 -0.32370754623E-01  0.42236293600E-01  0.11995733200E+00  0.13290378611E+00  0.21021051568E-01 0.  0.
         14    1    1    2    0    0  0.27705718712E-02 -0.20710101143E-01 -0.10818630005E-01  0.23529282034E-01  0.00000000000E+00 0. -1.
     999901    1    3    3    0    0  0.29600182752E-01 -0.21526192456E-01 -0.10913870200E+00  0.88749693186E+00  0.88000000000E+00 0. -1.
        -11    1    4    4    0    0 -0.52015507759E-02  0.18015200550E-01  0.58941300232E-01  0.61854196102E-01  0.51100000000E-03 0. -1.
         11    1    4    4    0    0 -0.27169203847E-01  0.24221093049E-01  0.61016031771E-01  0.71049590008E-01  0.51100000000E-03 0.  1.
</event>
<event>
 8    1  0.1215330E+005  0.1043930E+01  0.7957747E-01            NaN
         13   -1    0    0    0    0  0.00000000000E+00  0.00000000000E+00  0.74505805969E-08  0.10566000000E+00  0.10566000000E+00 0. -1.
     999900   -1    0    0    0    0 -0.00000000000E+00 -0.00000000000E+00 -0.74505805969E-08  0.93827000000E+00  0.93827000000E+00 0.  1.
     999902    2    1    2    0    0 -0.17813869269E-01  0.16250494940E-01  0.34015317478E-03  0.10198151036E+01  0.10195299492E+01 0.  0.
     999903    2    3    3    0    0  0.14109277115E-01  0.25269346472E-01  0.12532616975E+00  0.13036475013E+00  0.21229877036E-01 0.  0.
         14    1    1    2    0    0  0.17813869269E-01 -0.16250494940E-01 -0.34015317478E-03  0.24114896399E-01  0.00000000000E+00 0.  1.
     999901    1    3    3    0    0 -0.31923146384E-01 -0.90188515323E-02 -0.12498601658E+00  0.88945035348E+00  0.88000000000E+00 0. -1.
        -11    1    4    4    0    0  0.11054347831E-01  0.22454613081E-01  0.61474697257E-01  0.66376259147E-01  0.51100000000E-03 0.  1.
         11    1    4    4    0    0  0.30549292842E-02  0.28147333917E-02  0.63851472495E-01  0.63988490979E-01  0.51100000000E-03 0. -1.
</event>
<event>
 8    1  0.1093753E+005  0.1043930E+01  0.7957747E-01            NaN
         13   -1    0    0    0    0  0.00000000000E+00  0.00000000000E+00  0.74505805969E-08  0.10566000000E+00  0.10566000000E+00 0.  1.
     999900   -1    0    0    0    0 -0.00000000000E+00 -0.00000000000E+00 -0.74505805969E-08  0.93827000000E+00  0.93827000000E+00 0. -1.
     999902    2    1    2    0    0  0.81208231878E-02 -0.46508156548E-02  0.21366862547E-01  0.10206036057E+01  0.10203370028E+01 0.  0.
     999903    2    3    3    0    0  0.77533863517E-01 -0.12530569718E-01  0.10621802406E+00  0.13376654046E+00  0.21040521406E-01 0.  0.
         14    1    1    2    0    0 -0.81208231878E-02  0.46508156548E-02 -0.21366862547E-01  0.23326394291E-01  0.00000000000E+00 0. -1.
     999901    1    3    3    0    0 -0.69413040329E-01  0.78797540628E-02 -0.84851161516E-01  0.88683706525E+00  0.88000000000E+00 0. -1.
        -11    1    4    4    0    0  0.21452310833E-01 -0.19628886935E-03  0.44861859099E-01  0.49730148725E-01  0.51100000000E-03 0.  1.
         11    1    4    4    0    0  0.56081552683E-01 -0.12334280848E-01  0.61356164964E-01  0.84036391733E-01  0.51100000000E-03 0. -1.
</event>
<event>
 8    1  0.1093753E+005  0.1043930E+01  0.7957747E-01            NaN
         13   -1    0    0    0    0  0.00000000000E+00  0.00000000000E+00  0.74505805969E-08  0.10566000000E+00  0.10566000000E+00 0.  1.
     999900   -1    0    0    0    0 -0.00000000000E+00 -0.00000000000E+00 -0.74505805969E-08  0.93827000000E+00  0.93827000000E+00 0.  1.
     999902    2    1    2    0    0  0.15151386429E-01  0.37405694800E-02  0.17743910426E-01  0.10202994535E+01  0.10200257703E+01 0.  0.
     999903    2    3    3    0    0 -0.12157403806E-02  0.79824634881E-01 -0.99435380636E-01  0.12912738588E+00  0.20323299531E-01 0.  0.
         14    1    1    2    0    0 -0.15151386429E-01 -0.37405694800E-02 -0.17743910426E-01  0.23630546501E-01  0.00000000000E+00 0. -1.
     999901    1    3    3    0    0  0.16367126809E-01 -0.76084065401E-01  0.11717929106E+00  0.89117206762E+00  0.88000000000E+00 0. -1.
        -11    1    4    4    0    0 -0.10082138906E-01  0.27246358217E-01 -0.35320521954E-01  0.45736352643E-01  0.51100000000E-03 0. -1.
         11    1    4    4    0    0  0.88663985250E-02  0.52578276664E-01 -0.64114858682E-01  0.83391033239E-01  0.51100000000E-03 0.  1.
</event>
<event>
 8    1  0.1093753E+005  0.1043930E+01  0.7957747E-01            NaN
         13   -1    0    0    0    0  0.00000000000E+00  0.00000000000E+00  0.74505805969E-08  0.10566000000E+00  0.10566000000E+00 0.  1.
     999900   -1    0    0    0    0 -0.00000000000E+00 -0.00000000000E+00 -0.74505805969E-08  0.93827000000E+00  0.93827000000E+00 0.  1.
     999902    2    1    2    0    0 -0.21644438122E-02  0.14604319860E-01 -0.18281052485E-01  0.10204317478E+01  0.10201611559E+01 0.  0.
     999903    2    3    3    0    0 -0.85850424381E-02 -0.13466759131E-01  0.12552752301E+00  0.12829380112E+00  0.21144356582E-01 0.  0.
         14    1    1    2    0    0  0.21644438122E-02 -0.14604319860E-01  0.18281052485E-01  0.23498252181E-01  0.00000000000E+00 0.  1.
     999901    1    3    3    0    0  0.64205986259E-02  0.28071078991E-01 -0.14380857550E+00  0.89213794670E+00  0.88000000000E+00 0.  1.
        -11    1    4    4    0    0 -0.13068694723E-01 -0.74533500318E-02  0.45752781130E-01  0.48165561458E-01  0.51100000000E-03 0. -1.
         11    1    4    4    0    0  0.44836522844E-02 -0.60134090989E-02  0.79774741885E-01  0.80128239657E-01  0.51100000000E-03 0.  1.
</event>
<event>
 8    1  0.1093753E+005  0.1043930E+01  0.7957747E-01            NaN
         13   -1    0    0    0    0  0.00000000000E+00  0.00000000000E+00  0.74505805969E-08  0.10566000000E+00  0.10566000000E+00 0. -1.
     999900   -1    0    0    0    0 -0.00000000000E+00 -0.00000000000E+00 -0.74505805969E-08  0.93827000000E+00  0.93827000000E+00 0.  1.
     999902    2    1    2    0    0 -0.24828509327E-02 -0.75462548466E-02 -0.22089939709E-01  0.10204549931E+01  0.10201849426E+01 0.  0.
     999903    2    3    3    0    0  0.11458524333E+00  0.67133021492E-02  0.55776202783E-01  0.12917983371E+00  0.20039915838E-01 0.  0.
         14    1    1    2    0    0  0.24828509327E-02  0.75462548466E-02  0.22089939709E-01  0.23475006865E-01  0.00000000000E+00 0. -1.
     999901    1    3    3    0    0 -0.11706809426E+00 -0.14259556996E-01 -0.77866142492E-01  0.89127515942E+00  0.88000000000E+00 0.  1.
        -11    1    4    4    0    0  0.44340310501E-01  0.71401555685E-02  0.12306698595E-01  0.46569957142E-01  0.51100000000E-03 0.  1.
         11    1    4    4    0    0  0.70244932826E-01 -0.42685341931E-03  0.43469504187E-01  0.82609876570E-01  0.51100000000E-03 0. -1.
</event>
<event>
 8    1  0.1093753E+005  0.1043930E+01  0.7957747E-01            NaN
         13   -1    0    0    0    0  0.00000000000E+00  0.00000000000E+00  0.74505805969E-08  0.10566000000E+00  0.10566000000E+00 0.  1.
     999900   -1    0    0    0    0 -0.00000000000E+00 -0.00000000000E+00 -0.74505805969E-08  0.93827000000E+00  0.93827000000E+00 0. -1.
     999902    2    1    2    0    0  0.79013250603E-02 -0.72633529607E-02  0.20548831180E-01  0.10207472112E+01  0.10204839183E+01 0.  0.
     999903    2    3    3    0    0 -0.89401705520E-02  0.93718149487E-01 -0.85243795921E-01  0.12851799190E+00  0.19681242510E-01 0.  0.
         14    1    1    2    0    0 -0.79013250603E-02  0.72633529607E-02 -0.20548831180E-01  0.23182788806E-01  0.00000000000E+00 0. -1.
     999901    1    3    3    0    0  0.16841495612E-01 -0.10098150245E+00  0.10579262710E+00  0.89222921929E+00  0.88000000000E+00 0.  1.
        -11    1    4    4    0    0  0.41403021652E-02  0.57400643854E-01 -0.49665288782E-01  0.76018932166E-01  0.51100000000E-03 0. -1.
         11    1    4    4    0    0 -0.13080472717E-01  0.36317505632E-01 -0.35578507139E-01  0.52499059735E-01  0.51100000000E-03 0.  1.
</event>
<event>
 8    1  0.1093753E+005  0.1043930E+01  0.7957747E-01            NaN
         13   -1    0    0    0    0  0.00000000000E+00  0.00000000000E+00  0.74505805969E-08  0.10566000000E+00  0.10566000000E+00 0. -1.
     999900   -1    0    0    0    0 -0.00000000000E+00 -0.00000000000E+00 -0.74505805969E-08  0.93827000000E+00  0.93827000000E+00 0. -1.
     999902    2    1    2    0    0 -0.92921462145E-02  0.77305059177E-02  0.21285454908E-01  0.10194519426E+01  0.10191580290E+01 0.  0.
     999903    2    3    3    0    0 -0.50527321557E-01 -0.11456647855E+00 -0.23365583096E-01  0.12891805370E+00  0.19885317814E-01 0.  0.
         14    1    1    2    0    0  0.92921462145E-02 -0.77305059177E-02 -0.21285454908E-01  0.24478057392E-01  0.00000000000E+00 0.  1.
     999901    1    3    3    0    0  0.41235175343E-01  0.12229698447E+00  0.44651038005E-01  0.89053388891E+00  0.88000000000E+00 0.  1.
        -11    1    4    4    0    0 -0.34595172106E-01 -0.80779632589E-01 -0.25489295114E-01  0.91499400329E-01  0.51100000000E-03 0. -1.
         11    1    4    4    0    0 -0.15932149451E-01 -0.33786845966E-01  0.21237120172E-02  0.37418653372E-01  0.51100000000E-03 0.  1.
</event>
<event>
 8    1  0.1093753E+005  0.1043930E+01  0.7957747E-01            NaN
         13   -1    0    0    0    0  0.00000000000E+00  0.00000000000E+00  0.74505805969E-08  0.10566000000E+00  0.10566000000E+00 0. -1.
     999900   -1    0    0    0    0 -0.00000000000E+00 -0.00000000000E+00 -0.74505805969E-08  0.93827000000E+00  0.93827000000E+00 0.  1.
     999902    2    1    2    0    0 -0.76920515090E-02  0.11619318901E-01  0.19956199934E-01  0.10195901943E+01  0.10192996312E+01 0.  0.
     999903    2    3    3    0    0  0.34688237173E-01  0.38442785374E-01 -0.11511762264E+00  0.12787245597E+00  0.20449362062E-01 0.  0.
         14    1    1    2    0    0  0.76920515090E-02 -0.11619318901E-01 -0.19956199934E-01  0.24339805750E-01  0.00000000000E+00 0.  1.
     999901    1    3    3    0    0 -0.42380288682E-01 -0.26823466474E-01  0.13507382257E+00  0.89171773828E+00  0.88000000000E+00 0. -1.
        -11    1    4    4    0    0  0.79810346196E-02  0.22851167213E-01 -0.41927689693E-01  0.48415545443E-01  0.51100000000E-03 0. -1.
         11    1    4    4    0    0  0.26707202553E-01  0.15591618161E-01 -0.73189932943E-01  0.79456910526E-01  0.51100000000E-03 0.  1.
</event>
<event>
 8    1  0.1237263E+005  0.1043930E+01  0.7957747E-01            NaN
         13   -1    0    0    0    0  0.00000000000E+00  0.00000000000E+00  0.74505805969E-08  0.10566000000E+00  0.10566000000E+00 0.  1.
     999900   -1    0    0    0    0 -0.00000000000E+00 -0.00000000000E+00 -0.74505805969E-08  0.93827000000E+00  0.93827000000E+00 0. -1.
     999902    2    1    2    0    0  0.22504919011E-01  0.51243861978E-02  0.34510358779E-02  0.10205924688E+01  0.10203256083E+01 0.  0.
     999903    2    3    3    0    0 -0.32486239618E-04  0.53789259134E-01  0.11828412276E+00  0.13151269604E+00  0.20277328952E-01 0.  0.
         14    1    1    2    0    0 -0.22504919011E-01 -0.51243861978E-02 -0.34510358779E-02  0.23337531194E-01  0.00000000000E+00 0. -1.
     999901    1    3    3    0    0  0.22537405250E-01 -0.48664872937E-01 -0.11483308688E+00  0.88907977276E+00  0.88000000000E+00 0. -1.
        -11    1    4    4    0    0 -0.10092087421E-01  0.26906135068E-01  0.56877978432E-01  0.63727198937E-01  0.51100000000E-03 0.  1.
         11    1    4    4    0    0  0.10059601182E-01  0.26883124066E-01  0.61406144330E-01  0.67785497106E-01  0.51100000000E-03 0. -1.
</event>
<event>
 8    1  0.1093753E+005  0.1043930E+01  0.7957747E-01            NaN
         13   -1    0    0    0    0  0.00000000000E+00  0.00000000000E+00  0.74505805969E-08  0.10566000000E+00  0.10566000000E+00 0. -1.
     999900   -1    0    0    0    0 -0.00000000000E+00 -0.00000000000E+00 -0.74505805969E-08  0.93827000000E+00  0.93827000000E+00 0.  1.
     999902    2    1    2    0    0  0.12558262366E-01 -0.12391230420E-01  0.15729787913E-01  0.10202936134E+01  0.10200197933E+01 0.  0.
     999903    2    3    3    0    0 -0.77285742293E-01 -0.28563901740E-01 -0.96473135417E-01  0.12848477933E+00  0.20304930884E-01 0.  0.
         14    1    1    2    0    0 -0.12558262366E-01  0.12391230420E-01 -0.15729787913E-01  0.23636386627E-01  0.00000000000E+00 0.  1.
     999901    1    3    3    0    0  0.89844004659E-01  0.16172671320E-01  0.11220292333E+00  0.89180883404E+00  0.88000000000E+00 0. -1.
        -11    1    4    4    0    0 -0.27576634113E-01 -0.20109194682E-01 -0.33703183207E-01  0.47968908045E-01  0.51100000000E-03 0. -1.
         11    1    4    4    0    0 -0.49709108180E-01 -0.84547070577E-02 -0.62769952211E-01  0.80515871286E-01  0.51100000000E-03 0.  1.
</event>
<event>
 8    1  0.1093753E+005  0.1043930E+01  0.7957747E-01            NaN
         13   -1    0    0    0    0  0.00000000000E+00  0.00000000000E+00  0.74505805969E-08  0.10566000000E+00  0.10566000000E+00 0. -1.
     999900   -1    0    0    0    0 -0.00000000000E+00 -0.00000000000E+00 -0.74505805969E-08  0.93827000000E+00  0.93827000000E+00 0.  1.
     999902    2    1    2    0    0 -0.17849503429E-01  0.73171054875E-02  0.15242755857E-01  0.10193436946E+01  0.10190471438E+01 0.  0.
     999903    2    3    3    0    0 -0.34853599455E-01 -0.12260087178E+00 -0.89867658636E-02  0.12931285819E+00  0.19882308157E-01 0.  0.
         14    1    1    2    0    0  0.17849503429E-01 -0.73171054875E-02 -0.15242755857E-01  0.24586305365E-01  0.00000000000E+00 0.  1.
     999901    1    3    3    0    0  0.17004096026E-01  0.12991797726E+00  0.24229521721E-01  0.89003083644E+00  0.88000000000E+00 0.  1.
        -11    1    4    4    0    0 -0.60988798728E-02 -0.27207759662E-01 -0.10135096478E-01  0.29672206240E-01  0.51100000000E-03 0. -1.
         11    1    4    4    0    0 -0.28754719582E-01 -0.95393112114E-01  0.11483306143E-02  0.99640651951E-01  0.51100000000E-03 0.  1.
</event>
<event>
 8    1  0.1093753E+005  0.1043930E+01  0.7957747E-01            NaN
         13   -1    0    0    0    0  0.00000000000E+00  0.00000000000E+00  0.74505805969E-08  0.10566000000E+00  0.10566000000E+00 0. -1.
     999900   -1    0    0    0    0 -0.00000000000E+00 -0.00000000000E+00 -0.74505805969E-08  0.93827000000E+00  0.93827000000E+00 0.  1.
     999902    2    1    2    0    0  0.79808943261E-02 -0.47157703028E-02 -0.21799613202E-01  0.10202412622E+01  0.10199662135E+01 0.  0.
     999903    2    3    3    0    0  0.12469779219E+00 -0.22905189799E-01  0.27188665427E-01  0.13099802174E+00  0.18629843614E-01 0.  0.
         14    1    1    2    0    0 -0.79808943261E-02  0.47157703028E-02  0.21799613202E-01  0.23688737821E-01  0.00000000000E+00 0. -1.
     999901    1    3    3    0    0 -0.11671689787E+00  0.18189419496E-01 -0.48988278630E-01  0.88924324044E+00  0.88000000000E+00 0. -1.
        -11    1    4    4    0    0  0.77029906065E-01 -0.21346987349E-01  0.22676291363E-01  0.83088962012E-01  0.51100000000E-03 0.  1.
         11    1    4    4    0    0  0.47667886129E-01 -0.15582024500E-02  0.45123740645E-02  0.47909059724E-01  0.51100000000E-03 0. -1.
</event>
<event>
 8    1  0.1093753E+005  0.1043930E+01  0.7957747E-01            NaN
         13   -1    0    0    0    0  0.00000000000E+00  0.00000000000E+00  0.74505805969E-08  0.10566000000E+00  0.10566000000E+00 0.  1.
     999900   -1    0    0    0    0 -0.00000000000E+00 -0.00000000000E+00 -0.74505805969E-08  0.93827000000E+00  0.93827000000E+00 0. -1.
     999902    2    1    2    0    0  0.14519190984E-01  0.68711449236E-02  0.17234775143E-01  0.10203703520E+01  0.10200983277E+01 0.  0.
     999903    2    3    3    0    0  0.31553704564E-01 -0.12224168033E+00  0.27460232717E-01  0.13072724588E+00  0.19921941467E-01 0.  0.
         14    1    1    2    0    0 -0.14519190984E-01 -0.68711449236E-02 -0.17234775143E-01  0.23559647995E-01  0.00000000000E+00 0. -1.
     999901    1    3    3    0    0 -0.17034513580E-01  0.12911282526E+00 -0.10225457574E-01  0.88964310613E+00  0.88000000000E+00 0. -1.
        -11    1    4    4    0    0  0.78110525119E-02 -0.64676314983E-01  0.19144191972E-01  0.67902867895E-01  0.51100000000E-03 0.  1.
         11    1    4    4    0    0  0.23742652052E-01 -0.57565365349E-01  0.83160407453E-02  0.62824377983E-01  0.51100000000E-03 0. -1.
</event>
<event>
 8    1  0.1093753E+005  0.1043930E+01  0.7957747E-01            NaN
         13   -1    0    0    0    0  0.00000000000E+00  0.00000000000E+00  0.74505805969E-08  0.10566000000E+00  0.10566000000E+00 0. -1.
     999900   -1    0    0    0    0 -0.00000000000E+00 -0.00000000000E+00 -0.74505805969E-08  0.93827000000E+00  0.93827000000E+00 0.  1.
     999902    2    1    2    0    0  0.20345505979E-01  0.14730693910E-01  0.13297671939E-02  0.10187764468E+01  0.10184658793E+01 0.  0.
     999903    2    3    3    0    0  0.67647480744E-01  0.92510202478E-01 -0.61820530167E-01  0.13182938593E+00  0.20564285331E-01 0.  0.
         14    1    1    2    0    0 -0.20345505979E-01 -0.14730693910E-01 -0.13297671939E-02  0.25153553177E-01  0.00000000000E+00 0. -1.
     999901    1    3    3    0    0 -0.47301974765E-01 -0.77779508568E-01  0.63150297361E-01  0.88694706089E+00  0.88000000000E+00 0. -1.
        -11    1    4    4    0    0  0.37041080653E-01  0.46919884356E-01 -0.20837542925E-01  0.63308621214E-01  0.51100000000E-03 0.  1.
         11    1    4    4    0    0  0.30606400091E-01  0.45590318122E-01 -0.40982987242E-01  0.68520764716E-01  0.51100000000E-03 0. -1.
</event>
<event>
 8    1  0.1093753E+005  0.1043930E+01  0.7957747E-01            NaN
         13   -1    0    0    0    0  0.00000000000E+00  0.00000000000E+00  0.74505805969E-08  0.10566000000E+00  0.10566000000E+00 0.  1.
     999900   -1    0    0    0    0 -0.00000000000E+00 -0.00000000000E+00 -0.74505805969E-08  0.93827000000E+00  0.93827000000E+00 0.  1.
     999902    2    1    2    0    0  0.38268243955E-02 -0.15036704912E-01 -0.17804012375E-01  0.10203136934E+01  0.10200403438E+01 0.  0.
     999903    2    3    3    0    0 -0.29377609919E-01 -0.12752017181E+00 -0.47906036481E-02  0.13243734303E+00  0.19805599275E-01 0.  0.
         14    1    1    2    0    0 -0.38268243955E-02  0.15036704912E-01  0.17804012375E-01  0.23616306574E-01  0.00000000000E+00 0.  1.
     999901    1    3    3    0    0  0.33204434315E-01  0.11248346690E+00 -0.13013408727E-01  0.88787635039E+00  0.88000000000E+00 0.  1.
        -11    1    4    4    0    0 -0.62598384922E-02 -0.69805704392E-01 -0.49569263582E-02  0.70262751039E-01  0.51100000000E-03 0.  1.
         11    1    4    4    0    0 -0.23117771427E-01 -0.57714467418E-01  0.16632271012E-03  0.62174591992E-01  0.51100000000E-03 0. -1.
</event>
<event>
 8    1  0.1093753E+005  0.1043930E+01  0.7957747E-01            NaN
         13   -1    0    0    0    0  0.00000000000E+00  0.00000000000E+00  0.74505805969E-08  0.10566000000E+00  0.10566000000E+00 0.  1.
     999900   -1    0    0    0    0 -0.00000000000E+00 -0.00000000000E+00 -0.74505805969E-08  0.93827000000E+00  0.93827000000E+00 0.  1.
     999902    2    1    2    0    0 -0.96616733075E-02  0.12898477098E-01  0.39984332838E-02  0.10273255996E+01  0.10271914045E+01 0.  0.
     999903    2    3    3    0    0 -0.11744048607E+00  0.44529831155E-01  0.55296301411E-01  0.13870403434E+00  0.20148314147E-01 0.  0.
         14    1    1    2    0    0  0.96616733075E-02 -0.12898477098E-01 -0.39984332838E-02  0.16604400359E-01  0.00000000000E+00 0.  1.
     999901    1    3    3    0    0  0.10777881276E+00 -0.31631354057E-01 -0.51297868127E-01  0.88862156530E+00  0.88000000000E+00 0. -1.
        -11    1    4    4    0    0 -0.24797607430E-01  0.12528199810E-01  0.39905822195E-02  0.28072459674E-01  0.51100000000E-03 0. -1.
         11    1    4    4    0    0 -0.92642878637E-01  0.32001631345E-01  0.51305719191E-01  0.11063157467E+00  0.51100000000E-03 0.  1.
</event>
<event>
 8    1  0.1093753E+005  0.1043930E+01  0.7957747E-01            NaN
         13   -1    0    0    0    0  0.00000000000E+00  0.00000000000E+00  0.74505805969E-08  0.10566000000E+00  0.10566000000E+00 0.  1.
     999900   -1    0    0    0    0 -0.00000000000E+00 -0.00000000000E+00 -0.74505805969E-08  0.93827000000E+00  0.93827000000E+00 0.  1.
     999902    2    1    2    0    0 -0.51702495229E-03 -0.15265435263E-01  0.16304032816E-01  0.10215889545E+01  0.10213446380E+01 0.  0.
     999903    2    3    3    0    0 -0.82831415503E-01  0.80211905008E-01 -0.56192827587E-01  0.12965432899E+00  0.18910791987E-01 0.  0.
         14    1    1    2    0    0  0.51702495229E-03  0.15265435263E-01 -0.16304032816E-01  0.22341045514E-01  0.00000000000E+00 0. -1.
     999901    1    3    3    0    0  0.82314390551E-01 -0.95477340271E-01  0.72496860402E-01  0.89193462550E+00  0.88000000000E+00 0. -1.
        -11    1    4    4    0    0 -0.59666458274E-01  0.68616493828E-01 -0.43366871987E-01  0.10074351679E+00  0.51100000000E-03 0.  1.
         11    1    4    4    0    0 -0.23164957229E-01  0.11595411180E-01 -0.12825955600E-01  0.28910812198E-01  0.51100000000E-03 0. -1.
</event>
<event>
 8    1  0.1093753E+005  0.1043930E+01  0.7957747E-01            NaN
         13   -1    0    0    0    0  0.00000000000E+00  0.00000000000E+00  0.74505805969E-08  0.10566000000E+00  0.10566000000E+00 0. -1.
     999900   -1    0    0    0    0 -0.00000000000E+00 -0.00000000000E+00 -0.74505805969E-08  0.93827000000E+00  0.93827000000E+00 0.  1.
     999902    2    1    2    0    0  0.15822154147E-01 -0.17354480057E-01 -0.95746563451E-03  0.10204260582E+01  0.10201553337E+01 0.  0.
     999903    2    3    3    0    0  0.10287100514E-01  0.73719505479E-01  0.10409200412E+00  0.12949368211E+00  0.19826206413E-01 0.  0.
         14    1    1    2    0    0 -0.15822154147E-01  0.17354480057E-01  0.95746563451E-03  0.23503941804E-01  0.00000000000E+00 0. -1.
     999901    1    3    3    0    0  0.55350536333E-02 -0.91073985536E-01 -0.10504946975E+00  0.89093237608E+00  0.88000000000E+00 0.  1.
        -11    1    4    4    0    0  0.14660948616E-02  0.19343124482E-01  0.43325370026E-01  0.47472673274E-01  0.51100000000E-03 0. -1.
         11    1    4    4    0    0  0.88210056524E-02  0.54376380997E-01  0.60766634090E-01  0.82021008837E-01  0.51100000000E-03 0.  1.
</event>
<event>
 8    1  0.1093753E+005  0.1043930E+01  0.7957747E-01            NaN
         13   -1    0    0    0    0  0.00000000000E+00  0.00000000000E+00  0.74505805969E-08  0.10566000000E+00  0.10566000000E+00 0. -1.
     999900   -1    0    0    0    0 -0.00000000000E+00 -0.00000000000E+00 -0.74505805969E-08  0.93827000000E+00  0.93827000000E+00 0. -1.
     999902    2    1    2    0    0  0.20545280459E-01  0.28313342130E-02 -0.11132055195E-01  0.10203917831E+01  0.10201202593E+01 0.  0.
     999903    2    3    3    0    0  0.12686137197E-01  0.12868614818E+00 -0.11693607834E-01  0.13140274172E+00  0.20220713570E-01 0.  0.
         14    1    1    2    0    0 -0.20545280459E-01 -0.28313342130E-02  0.11132055195E-01  0.23538216913E-01  0.00000000000E+00 0. -1.
     999901    1    3    3    0    0  0.78591432625E-02 -0.12585481396E+00  0.56155263883E-03  0.88898904137E+00  0.88000000000E+00 0. -1.
        -11    1    4    4    0    0 -0.18084128707E-02  0.16709712340E-01  0.43197901693E-02  0.17361064245E-01  0.51100000000E-03 0.  1.
         11    1    4    4    0    0  0.14494550067E-01  0.11197643584E+00 -0.16013398003E-01  0.11404167747E+00  0.51100000000E-03 0. -1.
</event>
<event>
 8    1  0.1093753E+005  0.1043930E+01  0.7957747E-01            NaN
         13   -1    0    0    0    0  0.00000000000E+00  0.00000000000E+00  0.74505805969E-08  0.10566000000E+00  0.10566000000E+00 0.  1.
     999900   -1    0    0    0    0 -0.00000000000E+00 -0.00000000000E+00 -0.74505805969E-08  0.93827000000E+00  0.93827000000E+00 0. -1.
     999902    2    1    2    0    0  0.21277933478E-01  0.83293660501E-02  0.36073695774E-02  0.10207968656E+01  0.10205347123E+01 0.  0.
     999903    2    3    3    0    0  0.34785817668E-04  0.13061150227E+00 -0.37201903846E-02  0.13205737323E+00  0.19129669961E-01 0.  0.
         14    1    1    2    0    0 -0.21277933478E-01 -0.83293660501E-02 -0.36073695774E-02  0.23133134400E-01  0.00000000000E+00 0.  1.
     999901    1    3    3    0    0  0.21243147661E-01 -0.12228213622E+00  0.73275599619E-02  0.88873949237E+00  0.88000000000E+00 0.  1.
        -11    1    4    4    0    0  0.68675765769E-02  0.44641965815E-01  0.46563393449E-02  0.45409374990E-01  0.51100000000E-03 0.  1.
         11    1    4    4    0    0 -0.68327907592E-02  0.85969536456E-01 -0.83765297294E-02  0.86647998241E-01  0.51100000000E-03 0. -1.
</event>
<event>
 8    1  0.1093753E+005  0.1043930E+01  0.7957747E-01            NaN
         13   -1    0    0    0    0  0.00000000000E+00  0.00000000000E+00  0.74505805969E-08  0.10566000000E+00  0.10566000000E+00 0.  1.
     999900   -1    0    0    0    0 -0.00000000000E+00 -0.00000000000E+00 -0.74505805969E-08  0.93827000000E+00  0.93827000000E+00 0.  1.
     999902    2    1    2    0    0  0.90012540065E-02  0.81512677819E-02 -0.18168913241E-01  0.10220765072E+01  0.10218428506E+01 0.  0.
     999903    2    3    3    0    0  0.51987726718E-01  0.10598315939E+00  0.56662112664E-01  0.13245939949E+00  0.19993591442E-01 0.  0.
         14    1    1    2    0    0 -0.90012540065E-02 -0.81512677819E-02  0.18168913241E-01  0.21853492821E-01  0.00000000000E+00 0.  1.
     999901    1    3    3    0    0 -0.42986472712E-01 -0.97831891607E-01 -0.74831025905E-01  0.88961710769E+00  0.88000000000E+00 0.  1.
        -11    1    4    4    0    0  0.32087069003E-01  0.82245783158E-01  0.46950910247E-01  0.99992989446E-01  0.51100000000E-03 0. -1.
         11    1    4    4    0    0  0.19900657715E-01  0.23737376231E-01  0.97112024173E-02  0.32466410045E-01  0.51100000000E-03 0.  1.
</event>
<event>
 8    1  0.1093753E+005  0.1043930E+01  0.7957747E-01            NaN
         13   -1    0    0    0    0  0.00000000000E+00  0.00000000000E+00  0.74505805969E-08  0.10566000000E+00  0.10566000000E+00 0. -1.
     999900   -1    0    0    0    0 -0.00000000000E+00 -0.00000000000E+00 -0.74505805969E-08  0.93827000000E+00  0.93827000000E+00 0. -1.
     999902    2    1    2    0    0 -0.17055021253E-01  0.15700498971E-01  0.44481468686E-02  0.10203256481E+01  0.10200525784E+01 0.  0.
     999903    2    3    3    0    0 -0.12320615004E+00  0.24727729940E-01  0.39325249729E-01  0.13321462611E+00  0.20210029878E-01 0.  0.
         14    1    1    2    0    0  0.17055021253E-01 -0.15700498971E-01 -0.44481468686E-02  0.23604351896E-01  0.00000000000E+00 0. -1.
     999901    1    3    3    0    0  0.10615112879E+00 -0.90272309695E-02 -0.34877102861E-01  0.88711102200E+00  0.88000000000E+00 0.  1.
        -11    1    4    4    0    0 -0.38217475278E-01 -0.13276102547E-02  0.14706944561E-01  0.40974300543E-01  0.51100000000E-03 0.  1.
         11    1    4    4    0    0 -0.84988674760E-01  0.26055340195E-01  0.24618305169E-01  0.92240325566E-01  0.51100000000E-03 0. -1.
</event>
<event>
 8    1  0.1093753E+005  0.1043930E+01  0.7957747E-01            NaN
         13   -1    0    0    0    0  0.00000000000E+00  0.00000000000E+00  0.74505805969E-08  0.10566000000E+00  0.10566000000E+00 0. -1.
     999900   -1    0    0    0    0 -0.00000000000E+00 -0.00000000000E+00 -0.74505805969E-08  0.93827000000E+00  0.93827000000E+00 0.  1.
     999902    2    1    2    0    0  0.10339786131E-01  0.96960902309E-02  0.12230146766E-01  0.10252083058E+01  0.10250373498E+01 0.  0.
     999903    2    3    3    0    0 -0.80338290426E-01 -0.36969837035E-02  0.10696052038E+00  0.13539049768E+00  0.20545689201E-01 0.  0.
         14    1    1    2    0    0 -0.10339786131E-01 -0.96960902309E-02 -0.12230146766E-01  0.18721694179E-01  0.00000000000E+00 0.  1.
     999901    1    3    3    0    0  0.90678076557E-01  0.13393073934E-01 -0.94730373616E-01  0.88981780814E+00  0.88000000000E+00 0.  1.
        -11    1    4    4    0    0 -0.11756146340E-01  0.68267934737E-02  0.16583706606E-01  0.21449767637E-01  0.51100000000E-03 0.  1.
         11    1    4    4    0    0 -0.68582144086E-01 -0.10523777177E-01  0.90376813777E-01  0.11394073004E+00  0.51100000000E-03 0. -1.
</event>
<event>
 8    1  0.1093753E+005  0.1043930E+01  0.7957747E-01            NaN
         13   -1    0    0    0    0  0.00000000000E+00  0.00000000000E+00  0.74505805969E-08  0.10566000000E+00  0.10566000000E+00 0.  1.
     999900   -1    0    0    0    0 -0.00000000000E+00 -0.00000000000E+00 -0.74505805969E-08  0.93827000000E+00  0.93827000000E+00 0.  1.
     999902    2    1    2    0    0  0.23141607112E-02 -0.23358634037E-01 -0.49858480491E-02  0.10199333376E+01  0.10196510057E+01 0.  0.
     999903    2    3    3    0    0  0.79096034598E-01 -0.93958918762E-01 -0.46694163653E-01  0.13279217640E+00  0.19208229762E-01 0.  0.
         14    1    1    2    0    0 -0.23141607112E-02  0.23358634037E-01  0.49858480491E-02  0.23996662365E-01  0.00000000000E+00 0.  1.
     999901    1    3    3    0    0 -0.76781873887E-01  0.70600284724E-01  0.41708315604E-01  0.88714116123E+00  0.88000000000E+00 0. -1.
        -11    1    4    4    0    0  0.66647592253E-01 -0.78875716241E-01 -0.46441778884E-01  0.11322711739E+00  0.51100000000E-03 0.  1.
         11    1    4    4    0    0  0.12448442345E-01 -0.15083202521E-01 -0.25238476944E-03  0.19565059013E-01  0.51100000000E-03 0. -1.
</event>
<event>
 8    1  0.1093753E+005  0.1043930E+01  0.7957747E-01            NaN
         13   -1    0    0    0    0  0.00000000000E+00  0.00000000000E+00  0.74505805969E-08  0.10566000000E+00  0.10566000000E+00 0.  1.
     999900   -1    0    0    0    0 -0.00000000000E+00 -0.00000000000E+00 -0.74505805969E-08  0.93827000000E+00  0.93827000000E+00 0.  1.
     999902    2    1    2    0    0  0.54516846163E-02  0.97859483669E-02 -0.20113635874E-01  0.10209073156E+01  0.10206476880E+01 0.  0.
     999903    2    3    3    0    0 -0.56644351691E-01 -0.88059958522E-02 -0.11840295467E+00  0.13306590613E+00  0.20028668409E-01 0.  0.
         14    1    1    2    0    0 -0.54516846163E-02 -0.97859483669E-02  0.20113635874E-01  0.23022684436E-01  0.00000000000E+00 0.  1.
     999901    1    3    3    0    0  0.62096036307E-01  0.18591944219E-01  0.98289318796E-01  0.88784140943E+00  0.88000000000E+00 0. -1.
        -11    1    4    4    0    0 -0.28915242112E-01  0.21096144595E-02 -0.41834396422E-01  0.50901076064E-01  0.51100000000E-03 0.  1.
         11    1    4    4    0    0 -0.27729109579E-01 -0.10915610312E-01 -0.76568558248E-01  0.82164830066E-01  0.51100000000E-03 0. -1.
</event>
<event>
 8    1  0.1093753E+005  0.1043930E+01  0.7957747E-01            NaN
         13   -1    0    0    0    0  0.00000000000E+00  0.00000000000E+00  0.74505805969E-08  0.10566000000E+00  0.10566000000E+00 0.  1.
     999900   -1    0    0    0    0 -0.00000000000E+00 -0.00000000000E+00 -0.74505805969E-08  0.93827000000E+00  0.93827000000E+00 0.  1.
     999902    2    1    2    0    0  0.69218883486E-02 -0.15156589039E-01  0.16979830773E-01  0.10201403093E+01  0.10198628836E+01 0.  0.
     999903    2    3    3    0    0 -0.95335493780E-02  0.95199333054E-01 -0.81980746473E-01  0.12759204350E+00  0.20126728356E-01 0.  0.
         14    1    1    2    0    0 -0.69218883486E-02  0.15156589039E-01 -0.16979830773E-01  0.23789690680E-01  0.00000000000E+00 0. -1.
     999901    1    3    3    0    0  0.16455437727E-01 -0.11035592209E+00  0.98960577245E-01  0.89254826582E+00  0.88000000000E+00 0. -1.
        -11    1    4    4    0    0 -0.95373642950E-02  0.38020025817E-01 -0.23035217086E-01  0.45468296956E-01  0.51100000000E-03 0. -1.
         11    1    4    4    0    0  0.38149170649E-05  0.57179307236E-01 -0.58945529387E-01  0.82123746543E-01  0.51100000000E-03 0.  1.
</event>
<event>
 8    1  0.1093753E+005  0.1043930E+01  0.7957747E-01            NaN
         13   -1    0    0    0    0  0.00000000000E+00  0.00000000000E+00  0.74505805969E-08  0.10566000000E+00  0.10566000000E+00 0.  1.
     999900   -1    0    0    0    0 -0.00000000000E+00 -0.00000000000E+00 -0.74505805969E-08  0.93827000000E+00  0.93827000000E+00 0.  1.
     999902    2    1    2    0    0 -0.18018776264E-01 -0.13401743714E-01  0.16450491027E-02  0.10214135789E+01  0.10211653686E+01 0.  0.
     999903    2    3    3    0    0 -0.54801777665E-01  0.10892939093E+00 -0.43920534853E-01  0.13102371028E+00  0.19218538749E-01 0.  0.
         14    1    1    2    0    0  0.18018776264E-01  0.13401743714E-01 -0.16450491027E-02  0.22516421101E-01  0.00000000000E+00 0. -1.
     999901    1    3    3    0    0  0.36783001401E-01 -0.12233113464E+00  0.45565583956E-01  0.89038986862E+00  0.88000000000E+00 0. -1.
        -11    1    4    4    0    0 -0.16173591076E-01  0.15852384797E-01 -0.88490944096E-02  0.24319760379E-01  0.51100000000E-03 0. -1.
         11    1    4    4    0    0 -0.38628186589E-01  0.93077006129E-01 -0.35071440443E-01  0.10670394990E+00  0.51100000000E-03 0.  1.
</event>
<event>
 8    1  0.1093753E+005  0.1043930E+01  0.7957747E-01            NaN
         13   -1    0    0    0    0  0.00000000000E+00  0.00000000000E+00  0.74505805969E-08  0.10566000000E+00  0.10566000000E+00 0.  1.
     999900   -1    0    0    0    0 -0.00000000000E+00 -0.00000000000E+00 -0.74505805969E-08  0.93827000000E+00  0.93827000000E+00 0. -1.
     999902    2    1    2    0    0 -0.61257651780E-02 -0.77230155937E-03  0.13183554437E-01  0.10293722682E+01  0.10292693228E+01 0.  0.
     999903    2    3    3    0    0 -0.51136302354E-01 -0.10916209134E+00  0.67869399111E-01  0.13989779602E+00  0.20829171616E-01 0.  0.
         14    1    1    2    0    0  0.61257651780E-02  0.77230155937E-03 -0.13183554437E-01  0.14557731839E-01  0.00000000000E+00 0. -1.
     999901    1    3    3    0    0  0.45010537176E-01  0.10838978978E+00 -0.54685844675E-01  0.88947447214E+00  0.88000000000E+00 0.  1.
        -11    1    4    4    0    0 -0.20693587679E-01 -0.24527682604E-01  0.22185877718E-01  0.39016740971E-01  0.51100000000E-03 0.  1.
         11    1    4    4    0    0 -0.30442714675E-01 -0.84634408739E-01  0.45683521394E-01  0.10088105505E+00  0.51100000000E-03 0. -1.
</event>
<event>
 8    1  0.1093753E+005  0.1043930E+01  0.7957747E-01            NaN
         13   -1    0    0    0    0  0.00000000000E+00  0.00000000000E+00  0.74505805969E-08  0.10566000000E+00  0.10566000000E+00 0.  1.
     999900   -1    0    0    0    0 -0.00000000000E+00 -0.00000000000E+00 -0.74505805969E-08  0.93827000000E+00  0.93827000000E+00 0. -1.
     999902    2    1    2    0    0  0.13968519873E-02  0.16969870153E-01  0.16169280764E-01  0.10204486600E+01  0.10201784620E+01 0.  0.
     999903    2    3    3    0    0 -0.10679979943E+00 -0.18943898555E-01  0.71437145027E-01  0.13137563094E+00  0.19779339318E-01 0.  0.
         14    1    1    2    0    0 -0.13968519873E-02 -0.16969870153E-01 -0.16169280764E-01  0.23481340015E-01  0.00000000000E+00 0. -1.
     999901    1    3    3    0    0  0.10819665142E+00  0.35913768708E-01 -0.55267864263E-01  0.88907302905E+00  0.88000000000E+00 0. -1.
        -11    1    4    4    0    0 -0.60030448283E-01 -0.11812085404E-01  0.28546130545E-01  0.67515352127E-01  0.51100000000E-03 0. -1.
         11    1    4    4    0    0 -0.46769351146E-01 -0.71318131511E-02  0.42891014482E-01  0.63860278810E-01  0.51100000000E-03 0.  1.
</event>
<event>
 8    1  0.1093753E+005  0.1043930E+01  0.7957747E-01            NaN
         13   -1    0    0    0    0  0.00000000000E+00  0.00000000000E+00  0.74505805969E-08  0.10566000000E+00  0.10566000000E+00 0. -1.
     999900   -1    0    0    0    0 -0.00000000000E+00 -0.00000000000E+00 -0.74505805969E-08  0.93827000000E+00  0.93827000000E+00 0. -1.
     999902    2    1    2    0    0  0.18091198221E-01 -0.40526353923E-02  0.12157886064E-01  0.10217595354E+01  0.10215189762E+01 0.  0.
     999903    2    3    3    0    0  0.52796659790E-01  0.99304472564E-01 -0.65470527603E-01  0.13163969435E+00  0.19843225270E-01 0.  0.
         14    1    1    2    0    0 -0.18091198221E-01  0.40526353923E-02 -0.12157886064E-01  0.22170464592E-01  0.00000000000E+00 0.  1.
     999901    1    3    3    0    0 -0.34705461569E-01 -0.10335710796E+00  0.77628413666E-01  0.89011984105E+00  0.88000000000E+00 0.  1.
        -11    1    4    4    0    0  0.43590786192E-01  0.84662504412E-01 -0.46534443644E-01  0.10598873459E+00  0.51100000000E-03 0.  1.
         11    1    4    4    0    0  0.92058735976E-02  0.14641968152E-01 -0.18936083959E-01  0.25650959763E-01  0.51100000000E-03 0. -1.
</event>
<event>
 8    1  0.1093753E+005  0.1043930E+01  0.7957747E-01            NaN
         13   -1    0    0    0    0  0.00000000000E+00  0.00000000000E+00  0.74505805969E-08  0.10566000000E+00  0.10566000000E+00 0. -1.
     999900   -1    0    0    0    0 -0.00000000000E+00 -0.00000000000E+00 -0.74505805969E-08  0.93827000000E+00  0.93827000000E+00 0. -1.
     999902    2    1    2    0    0  0.61261192250E-02  0.32577348208E-02 -0.24075433241E-01  0.10188746880E+01  0.10185665718E+01 0.  0.
     999903    2    3    3    0    0  0.91720805165E-01  0.71778647839E-01 -0.56656124345E-01  0.13147226114E+00  0.22586691630E-01 0.  0.
         14    1    1    2    0    0 -0.61261192250E-02 -0.32577348208E-02  0.24075433241E-01  0.25055311985E-01  0.00000000000E+00 0. -1.
     999901    1    3    3    0    0 -0.85594685940E-01 -0.68520913019E-01  0.32580691104E-01  0.88740242687E+00  0.88000000000E+00 0.  1.
        -11    1    4    4    0    0  0.53636521513E-01  0.28955824208E-01 -0.34398061478E-01  0.69991456264E-01  0.51100000000E-03 0.  1.
         11    1    4    4    0    0  0.38084283652E-01  0.42822823632E-01 -0.22258062867E-01  0.61480804880E-01  0.51100000000E-03 0. -1.
</event>
<event>
 8    1  0.1093753E+005  0.1043930E+01  0.7957747E-01            NaN
         13   -1    0    0    0    0  0.00000000000E+00  0.00000000000E+00  0.74505805969E-08  0.10566000000E+00  0.10566000000E+00 0.  1.
     999900   -1    0    0    0    0 -0.00000000000E+00 -0.00000000000E+00 -0.74505805969E-08  0.93827000000E+00  0.93827000000E+00 0.  1.
     999902    2    1    2    0    0 -0.54707196954E-02  0.20468703210E-01 -0.93312617240E-02  0.10207789950E+01  0.10205164319E+01 0.  0.
     999903    2    3    3    0    0  0.26704847701E-01 -0.94360648848E-01  0.80120979212E-01  0.12824174056E+00  0.20235903013E-01 0.  0.
         14    1    1    2    0    0  0.54707196954E-02 -0.20468703210E-01  0.93312617240E-02  0.23151004955E-01  0.00000000000E+00 0. -1.
     999901    1    3    3    0    0 -0.32175567396E-01  0.11482935206E+00 -0.89452240936E-01  0.89253725448E+00  0.88000000000E+00 0.  1.
        -11    1    4    4    0    0  0.19598080554E-01 -0.65442261397E-01  0.67030939474E-01  0.95708841315E-01  0.51100000000E-03 0. -1.
         11    1    4    4    0    0  0.71067671472E-02 -0.28918387451E-01  0.13090039738E-01  0.32532899247E-01  0.51100000000E-03 0.  1.
</event>
<event>
 8    1  0.1093753E+005  0.1043930E+01  0.7957747E-01            NaN
         13   -1    0    0    0    0  0.00000000000E+00  0.00000000000E+00  0.74505805969E-08  0.10566000000E+00  0.10566000000E+00 0.  1.
     999900   -1    0    0    0    0 -0.00000000000E+00 -0.00000000000E+00 -0.74505805969E-08  0.93827000000E+00  0.93827000000E+00 0. -1.
     999902    2    1    2    0    0 -0.20211018461E-01 -0.11804170387E-01  0.71762700142E-02  0.10194489347E+01  0.10191549480E+01 0.  0.
     999903    2    3    3    0    0  0.57149931629E-01  0.47733233237E-01  0.10325844237E+00  0.12885295288E+00  0.19904806054E-01 0.  0.
         14    1    1    2    0    0  0.20211018461E-01  0.11804170387E-01 -0.71762700142E-02  0.24481065277E-01  0.00000000000E+00 0. -1.
     999901    1    3    3    0    0 -0.77360950091E-01 -0.59537403624E-01 -0.96082172360E-01  0.89059598184E+00  0.88000000000E+00 0. -1.
        -11    1    4    4    0    0  0.32608300627E-01  0.20571676932E-01  0.67143094258E-01  0.77427071423E-01  0.51100000000E-03 0.  1.
         11    1    4    4    0    0  0.24541631002E-01  0.27161556305E-01  0.36115348116E-01  0.51425881458E-01  0.51100000000E-03 0. -1.
</event>
<event>
 8    1  0.1093753E+005  0.1043930E+01  0.7957747E-01            NaN
         13   -1    0    0    0    0  0.00000000000E+00  0.00000000000E+00  0.74505805969E-08  0.10566000000E+00  0.10566000000E+00 0.  1.
     999900   -1    0    0    0    0 -0.00000000000E+00 -0.00000000000E+00 -0.74505805969E-08  0.93827000000E+00  0.93827000000E+00 0.  1.
     999902    2    1    2    0    0  0.10360180463E-01 -0.86225034199E-02  0.18975798264E-01  0.10206542224E+01  0.10203887886E+01 0.  0.
     999903    2    3    3    0    0 -0.12330931871E+00 -0.35138563921E-01  0.72385292291E-02  0.13008788573E+00  0.20749818180E-01 0.  0.
         14    1    1    2    0    0 -0.10360180463E-01  0.86225034199E-02 -0.18975798264E-01  0.23275777628E-01  0.00000000000E+00 0.  1.
     999901    1    3    3    0    0  0.13366949917E+00  0.26516060501E-01  0.11737269035E-01  0.89056633664E+00  0.88000000000E+00 0. -1.
        -11    1    4    4    0    0 -0.57927558954E-01 -0.90406464061E-02  0.10715814092E-01  0.59602224509E-01  0.51100000000E-03 0. -1.
         11    1    4    4    0    0 -0.65381759752E-01 -0.26097917515E-01 -0.34772848632E-02  0.70485661222E-01  0.51100000000E-03 0.  1.
</event>
<event>
 8    1  0.1093753E+005  0.1043930E+01  0.7957747E-01            NaN
         13   -1    0    0    0    0  0.00000000000E+00  0.00000000000E+00  0.74505805969E-08  0.10566000000E+00  0.10566000000E+00 0.  1.
     999900   -1    0    0    0    0 -0.00000000000E+00 -0.00000000000E+00 -0.74505805969E-08  0.93827000000E+00  0.93827000000E+00 0.  1.
     999902    2    1    2    0    0  0.12414012537E-01 -0.41208185408E-02  0.19753980928E-01  0.10202380475E+01  0.10199629233E+01 0.  0.
     999903    2    3    3    0    0 -0.55058864488E-01 -0.38495715576E-01  0.11210308477E+00  0.13217128214E+00  0.19716681584E-01 0.  0.
         14    1    1    2    0    0 -0.12414012537E-01  0.41208185408E-02 -0.19753980928E-01  0.23691952541E-01  0.00000000000E+00 0. -1.
     999901    1    3    3    0    0  0.67472877025E-01  0.34374897035E-01 -0.92349103838E-01  0.88806676532E+00  0.88000000000E+00 0.  1.
        -11    1    4    4    0    0 -0.26612121916E-01 -0.72235975953E-02  0.48643771153E-01  0.55918360027E-01  0.51100000000E-03 0.  1.
         11    1    4    4    0    0 -0.28446742572E-01 -0.31272117980E-01  0.63459313613E-01  0.76252922115E-01  0.51100000000E-03 0. -1.
</event>
<event>
 8    1  0.1093753E+005  0.1043930E+01  0.7957747E-01            NaN
         13   -1    0    0    0    0  0.00000000000E+00  0.00000000000E+00  0.74505805969E-08  0.10566000000E+00  0.10566000000E+00 0.  1.
     999900   -1    0    0    0    0 -0.00000000000E+00 -0.00000000000E+00 -0.74505805969E-08  0.93827000000E+00  0.93827000000E+00 0. -1.
     999902    2    1    2    0    0 -0.15929652032E-01  0.10877511260E-01  0.13149652106E-01  0.10205850345E+01  0.10203180020E+01 0.  0.
     999903    2    3    3    0    0  0.16980703774E-01  0.12738020356E-01 -0.12637021675E+00  0.12898403244E+00  0.14725742128E-01 0.  0.
         14    1    1    2    0    0  0.15929652032E-01 -0.10877511260E-01 -0.13149652106E-01  0.23344965529E-01  0.00000000000E+00 0. -1.
     999901    1    3    3    0    0 -0.32910355806E-01 -0.18605090964E-02  0.13951986885E+00  0.89160100203E+00  0.88000000000E+00 0.  1.
        -11    1    4    4    0    0  0.13329145204E-02  0.95136739308E-02 -0.39433445662E-01  0.40589954552E-01  0.51100000000E-03 0. -1.
         11    1    4    4    0    0  0.15647789254E-01  0.32243464255E-02 -0.86936771085E-01  0.88394077890E-01  0.51100000000E-03 0.  1.
</event>
<event>
 8    1  0.1093753E+005  0.1043930E+01  0.7957747E-01            NaN
         13   -1    0    0    0    0  0.00000000000E+00  0.00000000000E+00  0.74505805969E-08  0.10566000000E+00  0.10566000000E+00 0. -1.
     999900   -1    0    0    0    0 -0.00000000000E+00 -0.00000000000E+00 -0.74505805969E-08  0.93827000000E+00  0.93827000000E+00 0.  1.
     999902    2    1    2    0    0  0.11239242087E-01  0.19497466552E-01  0.77195316340E-02  0.10201379229E+01  0.10198604408E+01 0.  0.
     999903    2    3    3    0    0 -0.10918081034E+00 -0.95486851013E-02  0.66101044329E-01  0.12954650760E+00  0.20033043612E-01 0.  0.
         14    1    1    2    0    0 -0.11239242087E-01 -0.19497466552E-01 -0.77195316340E-02  0.23792077112E-01  0.00000000000E+00 0.  1.
     999901    1    3    3    0    0  0.12042005243E+00  0.29046151653E-01 -0.58381512695E-01  0.89059141528E+00  0.88000000000E+00 0.  1.
        -11    1    4    4    0    0 -0.87051588379E-01 -0.69133616199E-02  0.61434435004E-01  0.10677183399E+00  0.51100000000E-03 0. -1.
         11    1    4    4    0    0 -0.22129221966E-01 -0.26353234814E-02  0.46666093242E-02  0.22774673614E-01  0.51100000000E-03 0.  1.
</event>
<event>
 8    1  0.1093753E+005  0.1043930E+01  0.7957747E-01            NaN
         13   -1    0    0    0    0  0.00000000000E+00  0.00000000000E+00  0.74505805969E-08  0.10566000000E+00  0.10566000000E+00 0.  1.
     999900   -1    0    0    0    0 -0.00000000000E+00 -0.00000000000E+00 -0.74505805969E-08  0.93827000000E+00  0.93827000000E+00 0.  1.
     999902    2    1    2    0    0  0.16901056739E-01  0.92359233468E-02 -0.13712485467E-01  0.10202872367E+01  0.10200132671E+01 0.  0.
     999903    2    3    3    0    0 -0.94288824495E-01 -0.64798956541E-01  0.52943424495E-01  0.12771378680E+00  0.20457711205E-01 0.  0.
         14    1    1    2    0    0 -0.16901056739E-01 -0.92359233468E-02  0.13712485467E-01  0.23642763304E-01  0.00000000000E+00 0. -1.
     999901    1    3    3    0    0  0.11118988123E+00  0.74034879888E-01 -0.66655909961E-01  0.89257344990E+00  0.88000000000E+00 0.  1.
        -11    1    4    4    0    0 -0.17687441788E-01 -0.13628017771E-01  0.19491818667E-02  0.22419386618E-01  0.51100000000E-03 0.  1.
         11    1    4    4    0    0 -0.76601382707E-01 -0.51170938770E-01  0.50994242628E-01  0.10529440018E+00  0.51100000000E-03 0. -1.
</event>
<event>
 8    1  0.1093753E+005  0.1043930E+01  0.7957747E-01            NaN
         13   -1    0    0    0    0  0.00000000000E+00  0.00000000000E+00  0.74505805969E-08  0.10566000000E+00  0.10566000000E+00 0. -1.
     999900   -1    0    0    0    0 -0.00000000000E+00 -0.00000000000E+00 -0.74505805969E-08  0.93827000000E+00  0.93827000000E+00 0.  1.
     999902    2    1    2    0    0 -0.22518400538E-03  0.10845006699E-01 -0.16324705446E-01  0.10243299774E+01  0.10241424421E+01 0.  0.
     999903    2    3    3    0    0  0.10508657809E+00  0.81423489345E-01  0.10939938526E-01  0.13482716669E+00  0.19639478342E-01 0.  0.
         14    1    1    2    0    0  0.22518400538E-03 -0.10845006699E-01  0.16324705446E-01  0.19600022603E-01  0.00000000000E+00 0. -1.
     999901    1    3    3    0    0 -0.10531176210E+00 -0.70578482646E-01 -0.27264643971E-01  0.88950281071E+00  0.88000000000E+00 0.  1.
        -11    1    4    4    0    0  0.54802399073E-01  0.54584937825E-01  0.48522611002E-02  0.77502412481E-01  0.51100000000E-03 0. -1.
         11    1    4    4    0    0  0.50284179020E-01  0.26838551520E-01  0.60876774254E-02  0.57324754207E-01  0.51100000000E-03 0.  1.
</event>
<event>
 8    1  0.1093753E+005  0.1043930E+01  0.7957747E-01            NaN
         13   -1    0    0    0    0  0.00000000000E+00  0.00000000000E+00  0.74505805969E-08  0.10566000000E+00  0.10566000000E+00 0.  1.
     999900   -1    0    0    0    0 -0.00000000000E+00 -0.00000000000E+00 -0.74505805969E-08  0.93827000000E+00  0.93827000000E+00 0. -1.
     999902    2    1    2    0    0 -0.76978677529E-02 -0.22386721273E-01  0.19113289063E-01  0.10135040197E+01  0.10130472140E+01 0.  0.
     999903    2    3    3    0    0 -0.23650293464E-01  0.11660673691E+00  0.19813179611E-01  0.12245174788E+00  0.21104525573E-01 0.  0.
         14    1    1    2    0    0  0.76978677529E-02  0.22386721273E-01 -0.19113289063E-01  0.30425980281E-01  0.00000000000E+00 0.  1.
     999901    1    3    3    0    0  0.15952425711E-01 -0.13899345818E+00 -0.69989054812E-03  0.89105227184E+00  0.88000000000E+00 0.  1.
        -11    1    4    4    0    0 -0.17288781005E-01  0.44186900474E-01  0.14220114565E-01  0.49536419949E-01  0.51100000000E-03 0. -1.
         11    1    4    4    0    0 -0.63615124598E-02  0.72419836432E-01  0.55930650456E-02  0.72915327930E-01  0.51100000000E-03 0.  1.
</event>
<event>
 8    1  0.1093753E+005  0.1043930E+01  0.7957747E-01            NaN
         13   -1    0    0    0    0  0.00000000000E+00  0.00000000000E+00  0.74505805969E-08  0.10566000000E+00  0.10566000000E+00 0. -1.
     999900   -1    0    0    0    0 -0.00000000000E+00 -0.00000000000E+00 -0.74505805969E-08  0.93827000000E+00  0.93827000000E+00 0.  1.
     999902    2    1    2    0    0 -0.19145820151E-01 -0.92852306898E-02  0.94765119562E-02  0.10206366057E+01  0.10203707653E+01 0.  0.
     999903    2    3    3    0    0  0.85058162784E-02  0.41592686863E-01 -0.12031227284E+00  0.12923416902E+00  0.20594342305E-01 0.  0.
         14    1    1    2    0    0  0.19145820151E-01  0.92852306898E-02 -0.94765119562E-02  0.23293394279E-01  0.00000000000E+00 0.  1.
     999901    1    3    3    0    0 -0.27651636429E-01 -0.50877917553E-01  0.12978878480E+00  0.89140243670E+00  0.88000000000E+00 0. -1.
        -11    1    4    4    0    0  0.35310291245E-02  0.10714553153E-01 -0.11926103368E-01  0.16424459763E-01  0.51100000000E-03 0. -1.
         11    1    4    4    0    0  0.49747871539E-02  0.30878133710E-01 -0.10838616948E+00  0.11280970926E+00  0.51100000000E-03 0.  1.
</event>
<event>
 8    1  0.1093753E+005  0.1043930E+01  0.7957747E-01            NaN
         13   -1    0    0    0    0  0.00000000000E+00  0.00000000000E+00  0.74505805969E-08  0.10566000000E+00  0.10566000000E+00 0. -1.
     999900   -1    0    0    0    0 -0.00000000000E+00 -0.00000000000E+00 -0.74505805969E-08  0.93827000000E+00  0.93827000000E+00 0. -1.
     999902    2    1    2    0    0 -0.18528154808E-01  0.13248400110E-01 -0.94094247806E-02  0.10192855300E+01  0.10189875572E+01 0.  0.
     999903    2    3    3    0    0 -0.47069810977E-01  0.10351072115E+00  0.62619754508E-01  0.13128208666E+00  0.19588673413E-01 0.  0.
         14    1    1    2    0    0  0.18528154808E-01 -0.13248400110E-01  0.94094247806E-02  0.24644469983E-01  0.00000000000E+00 0. -1.
     999901    1    3    3    0    0  0.28541656169E-01 -0.90262321039E-01 -0.72029179288E-01  0.88800344335E+00  0.88000000000E+00 0. -1.
        -11    1    4    4    0    0 -0.14517684536E-01  0.27375871942E-01  0.27148831582E-01  0.41200991568E-01  0.51100000000E-03 0.  1.
         11    1    4    4    0    0 -0.32552126441E-01  0.76134849207E-01  0.35470922925E-01  0.90081095097E-01  0.51100000000E-03 0. -1.
</event>
<event>
 8    1  0.1093753E+005  0.1043930E+01  0.7957747E-01            NaN
         13   -1    0    0    0    0  0.00000000000E+00  0.00000000000E+00  0.74505805969E-08  0.10566000000E+00  0.10566000000E+00 0. -1.
     999900   -1    0    0    0    0 -0.00000000000E+00 -0.00000000000E+00 -0.74505805969E-08  0.93827000000E+00  0.93827000000E+00 0. -1.
     999902    2    1    2    0    0 -0.48047359266E-02  0.25820963120E-01 -0.23241151099E-01  0.10088592326E+01  0.10082494693E+01 0.  0.
     999903    2    3    3    0    0  0.10130809539E+00  0.62259916798E-01 -0.13546790396E-01  0.12168297559E+00  0.21990988775E-01 0.  0.
         14    1    1    2    0    0  0.48047359266E-02 -0.25820963120E-01  0.23241151099E-01  0.35070767431E-01  0.00000000000E+00 0.  1.
     999901    1    3    3    0    0 -0.10611283132E+00 -0.36438953678E-01 -0.96943607032E-02  0.88717625698E+00  0.88000000000E+00 0.  1.
        -11    1    4    4    0    0  0.85901934831E-01  0.43589405599E-01 -0.14694822789E-01  0.97444228284E-01  0.51100000000E-03 0.  1.
         11    1    4    4    0    0  0.15406160560E-01  0.18670511199E-01  0.11480323929E-02  0.24238747307E-01  0.51100000000E-03 0. -1.
</event>
<event>
 8    1  0.1093753E+005  0.1043930E+01  0.7957747E-01            NaN
         13   -1    0    0    0    0  0.00000000000E+00  0.00000000000E+00  0.74505805969E-08  0.10566000000E+00  0.10566000000E+00 0. -1.
     999900   -1    0    0    0    0 -0.00000000000E+00 -0.00000000000E+00 -0.74505805969E-08  0.93827000000E+00  0.93827000000E+00 0.  1.
     999902    2    1    2    0    0  0.21401624993E-02  0.16969477546E-02 -0.23083346737E-01  0.10206856281E+01  0.10204209184E+01 0.  0.
     999903    2    3    3    0    0 -0.19512182365E-01  0.37339764394E-01 -0.12537308517E+00  0.13377953107E+00  0.20089031393E-01 0.  0.
         14    1    1    2    0    0 -0.21401624993E-02 -0.16969477546E-02  0.23083346737E-01  0.23244371873E-01  0.00000000000E+00 0. -1.
     999901    1    3    3    0    0  0.21652344864E-01 -0.35642816639E-01  0.10228973843E+00  0.88690609706E+00  0.88000000000E+00 0. -1.
        -11    1    4    4    0    0 -0.12625653846E-01  0.22788261718E-01 -0.10278792328E+00  0.10603928659E+00  0.51100000000E-03 0.  1.
         11    1    4    4    0    0 -0.68865285183E-02  0.14551502676E-01 -0.22585161887E-01  0.27740244477E-01  0.51100000000E-03 0. -1.
</event>
<event>
 8    1  0.1093753E+005  0.1043930E+01  0.7957747E-01            NaN
         13   -1    0    0    0    0  0.00000000000E+00  0.00000000000E+00  0.74505805969E-08  0.10566000000E+00  0.10566000000E+00 0.  1.
     999900   -1    0    0    0    0 -0.00000000000E+00 -0.00000000000E+00 -0.74505805969E-08  0.93827000000E+00  0.93827000000E+00 0. -1.
     999902    2    1    2    0    0  0.49035466444E-02 -0.37957045121E-02  0.23259219090E-01  0.10198583691E+01  0.10195742492E+01 0.  0.
     999903    2    3    3    0    0  0.13649510439E-01 -0.78134643030E-01 -0.98687237184E-01  0.12830146800E+00  0.20754862848E-01 0.  0.
         14    1    1    2    0    0 -0.49035466444E-02  0.37957045121E-02 -0.23259219090E-01  0.24071630919E-01  0.00000000000E+00 0. -1.
     999901    1    3    3    0    0 -0.87459637947E-02  0.74338938518E-01  0.12194645627E+00  0.89155690108E+00  0.88000000000E+00 0.  1.
        -11    1    4    4    0    0  0.91015342976E-02 -0.16519882889E-01 -0.14109195681E-01  0.23560029308E-01  0.51100000000E-03 0. -1.
         11    1    4    4    0    0  0.45479761414E-02 -0.61614760141E-01 -0.84578041503E-01  0.10474143869E+00  0.51100000000E-03 0.  1.
</event>
<event>
 8    1  0.1093753E+005  0.1043930E+01  0.7957747E-01            NaN
         13   -1    0    0    0    0  0.00000000000E+00  0.00000000000E+00  0.74505805969E-08  0.10566000000E+00  0.10566000000E+00 0.  1.
     999900   -1    0    0    0    0 -0.00000000000E+00 -0.00000000000E+00 -0.74505805969E-08  0.93827000000E+00  0.93827000000E+00 0.  1.
     999902    2    1    2    0    0 -0.51523528025E-02 -0.84718547000E-02 -0.19180992383E-01  0.10223376511E+01  0.10221096044E+01 0.  0.
     999903    2    3    3    0    0  0.19314672457E-01 -0.69383714090E-01 -0.11261926545E+00  0.13495971539E+00  0.18543717971E-01 0.  0.
         14    1    1    2    0    0  0.51523528025E-02  0.84718547000E-02  0.19180992383E-01  0.21592348882E-01  0.00000000000E+00 0.  1.
     999901    1    3    3    0    0 -0.24467025259E-01  0.60911859390E-01  0.93438273063E-01  0.88737793573E+00  0.88000000000E+00 0. -1.
        -11    1    4    4    0    0  0.17413197578E-01 -0.48969985313E-01 -0.65848929334E-01  0.83890532999E-01  0.51100000000E-03 0.  1.
         11    1    4    4    0    0  0.19014748786E-02 -0.20413728777E-01 -0.46770336112E-01  0.51069182393E-01  0.51100000000E-03 0. -1.
</event>
<event>
 8    1  0.1093753E+005  0.1043930E+01  0.7957747E-01            NaN
         13   -1    0    0    0    0  0.00000000000E+00  0.00000000000E+00  0.74505805969E-08  0.10566000000E+00  0.10566000000E+00 0. -1.
     999900   -1    0    0    0    0 -0.00000000000E+00 -0.00000000000E+00 -0.74505805969E-08  0.93827000000E+00  0.93827000000E+00 0. -1.
     999902    2    1    2    0    0 -0.33948737733E-02 -0.60716524254E-02  0.23962928655E-01  0.10189778041E+01  0.10186722501E+01 0.  0.
     999903    2    3    3    0    0  0.80645201219E-01 -0.68343169161E-01 -0.68938396560E-01  0.12792722627E+00  0.20938850266E-01 0.  0.
         14    1    1    2    0    0  0.33948737733E-02  0.60716524254E-02 -0.23962928655E-01  0.24952195912E-01  0.00000000000E+00 0.  1.
     999901    1    3    3    0    0 -0.84040074992E-01  0.62271516736E-01  0.92901325215E-01  0.89105057782E+00  0.88000000000E+00 0.  1.
        -11    1    4    4    0    0  0.29451825046E-01 -0.31999607613E-01 -0.38797082784E-01  0.58282584358E-01  0.51100000000E-03 0. -1.
         11    1    4    4    0    0  0.51193376173E-01 -0.36343561549E-01 -0.30141313776E-01  0.69644641913E-01  0.51100000000E-03 0.  1.
</event>
<event>
 8    1  0.1093753E+005  0.1043930E+01  0.7957747E-01            NaN
         13   -1    0    0    0    0  0.00000000000E+00  0.00000000000E+00  0.74505805969E-08  0.10566000000E+00  0.10566000000E+00 0.  1.
     999900   -1    0    0    0    0 -0.00000000000E+00 -0.00000000000E+00 -0.74505805969E-08  0.93827000000E+00  0.93827000000E+00 0. -1.
     999902    2    1    2    0    0 -0.21301323739E-01 -0.34770414657E-02  0.10602185121E-01  0.10198833258E+01  0.10195998017E+01 0.  0.
     999903    2    3    3    0    0 -0.47160776689E-01 -0.73503872556E-01 -0.94833290834E-01  0.13045142399E+00  0.19931453339E-01 0.  0.
         14    1    1    2    0    0  0.21301323739E-01  0.34770414657E-02 -0.10602185121E-01  0.24046674193E-01  0.00000000000E+00 0. -1.
     999901    1    3    3    0    0  0.25859452949E-01  0.70026831090E-01  0.10543547595E+00  0.88943190182E+00  0.88000000000E+00 0.  1.
        -11    1    4    4    0    0 -0.62708092273E-02 -0.22979444747E-01 -0.33300308088E-01  0.40945690481E-01  0.51100000000E-03 0. -1.
         11    1    4    4    0    0 -0.40889967461E-01 -0.50524427809E-01 -0.61532982746E-01  0.89505733509E-01  0.51100000000E-03 0.  1.
</event>
<event>
 8    1  0.1093753E+005  0.1043930E+01  0.7957747E-01            NaN
         13   -1    0    0    0    0  0.00000000000E+00  0.00000000000E+00  0.74505805969E-08  0.10566000000E+00  0.10566000000E+00 0.  1.
     999900   -1    0    0    0    0 -0.00000000000E+00 -0.00000000000E+00 -0.74505805969E-08  0.93827000000E+00  0.93827000000E+00 0.  1.
     999902    2    1    2    0    0  0.29411811761E-02  0.18096328358E-01 -0.13592657133E-01  0.10211070297E+01  0.10208519374E+01 0.  0.
     999903    2    3    3    0    0  0.11956860797E+00  0.28889697619E-03 -0.53432752046E-01  0.13234030299E+00  0.19030536821E-01 0.  0.
         14    1    1    2    0    0 -0.29411811761E-02 -0.18096328358E-01  0.13592657133E-01  0.22822970330E-01  0.00000000000E+00 0.  1.
     999901    1    3    3    0    0 -0.11662742679E+00  0.17807431382E-01  0.39840094913E-01  0.88876672668E+00  0.88000000000E+00 0.  1.
        -11    1    4    4    0    0  0.10044479342E+00 -0.62140196447E-03 -0.52064088363E-01  0.11313917572E+00  0.51100000000E-03 0.  1.
         11    1    4    4    0    0  0.19123814547E-01  0.91029894066E-03 -0.13686636829E-02  0.19201127265E-01  0.51100000000E-03 0. -1.
</event>
<event>
 8    1  0.1093753E+005  0.1043930E+01  0.7957747E-01            NaN
         13   -1    0    0    0    0  0.00000000000E+00  0.00000000000E+00  0.74505805969E-08  0.10566000000E+00  0.10566000000E+00 0.  1.
     999900   -1    0    0    0    0 -0.00000000000E+00 -0.00000000000E+00 -0.74505805969E-08  0.93827000000E+00  0.93827000000E+00 0. -1.
     999902    2    1    2    0    0 -0.54852818652E-02 -0.11446104250E-01  0.19215449892E-01  0.10209009936E+01  0.10206412218E+01 0.  0.
     999903    2    3    3    0    0  0.75908997246E-02  0.55879551666E-01  0.11863738178E+00  0.13265077494E+00  0.18473052867E-01 0.  0.
         14    1    1    2    0    0  0.54852818652E-02  0.11446104250E-01 -0.19215449892E-01  0.23029006366E-01  0.00000000000E+00 0. -1.
     999901    1    3    3    0    0 -0.13076181590E-01 -0.67325655916E-01 -0.99421931893E-01  0.88825021869E+00  0.88000000000E+00 0. -1.
        -11    1    4    4    0    0  0.17953765869E-02  0.46836473675E-01  0.10694110296E+00  0.11676274777E+00  0.51100000000E-03 0. -1.
         11    1    4    4    0    0  0.57955231377E-02  0.90430779911E-02  0.11696278823E-01  0.15888027168E-01  0.51100000000E-03 0.  1.
</event>
<event>
 8    1  0.1402744E+005  0.1043930E+01  0.7957747E-01            NaN
         13   -1    0    0    0    0  0.00000000000E+00  0.00000000000E+00  0.74505805969E-08  0.10566000000E+00  0.10566000000E+00 0.  1.
     999900   -1    0    0    0    0 -0.00000000000E+00 -0.00000000000E+00 -0.74505805969E-08  0.93827000000E+00  0.93827000000E+00 0.  1.
     999902    2    1    2    0    0  0.15449719975E-01 -0.17384209917E-01  0.14678928254E-02  0.10206263670E+01  0.10203602901E+01 0.  0.
     999903    2    3    3    0    0  0.71512967518E-01 -0.44303485537E-01  0.10056288962E+00  0.13288341236E+00  0.21638002632E-01 0.  0.
         14    1    1    2    0    0 -0.15449719975E-01  0.17384209917E-01 -0.14678928254E-02  0.23303633002E-01  0.00000000000E+00 0. -1.
     999901    1    3    3    0    0 -0.56063247543E-01  0.26919275621E-01 -0.99094996790E-01  0.88774295464E+00  0.88000000000E+00 0.  1.
        -11    1    4    4    0    0  0.51404700960E-01 -0.19749098783E-01  0.65967381075E-01  0.85932686856E-01  0.51100000000E-03 0. -1.
         11    1    4    4    0    0  0.20108266559E-01 -0.24554386755E-01  0.34595508541E-01  0.46950725501E-01  0.51100000000E-03 0.  1.
</event>
<event>
 8    1  0.1093753E+005  0.1043930E+01  0.7957747E-01            NaN
         13   -1    0    0    0    0  0.00000000000E+00  0.00000000000E+00  0.74505805969E-08  0.10566000000E+00  0.10566000000E+00 0.  1.
     999900   -1    0    0    0    0 -0.00000000000E+00 -0.00000000000E+00 -0.74505805969E-08  0.93827000000E+00  0.93827000000E+00 0. -1.
     999902    2    1    2    0    0 -0.71274569902E-02  0.74795858162E-02 -0.22933480785E-01  0.10187766824E+01  0.10184661208E+01 0.  0.
     999903    2    3    3    0    0  0.66002606644E-01 -0.54071396766E-01 -0.96971998707E-01  0.13050970009E+00  0.18685642948E-01 0.  0.
         14    1    1    2    0    0  0.71274569902E-02 -0.74795858162E-02  0.22933480785E-01  0.25153317635E-01  0.00000000000E+00 0.  1.
     999901    1    3    3    0    0 -0.73130063634E-01  0.61550982582E-01  0.74038517923E-01  0.88826698228E+00  0.88000000000E+00 0.  1.
        -11    1    4    4    0    0  0.54592260983E-01 -0.34535675369E-01 -0.68822025177E-01  0.94391525588E-01  0.51100000000E-03 0. -1.
         11    1    4    4    0    0  0.11410345661E-01 -0.19535721397E-01 -0.28149973531E-01  0.36118174502E-01  0.51100000000E-03 0.  1.
</event>
<event>
 8    1  0.1093753E+005  0.1043930E+01  0.7957747E-01            NaN
         13   -1    0    0    0    0  0.00000000000E+00  0.00000000000E+00  0.74505805969E-08  0.10566000000E+00  0.10566000000E+00 0. -1.
     999900   -1    0    0    0    0 -0.00000000000E+00 -0.00000000000E+00 -0.74505805969E-08  0.93827000000E+00  0.93827000000E+00 0.  1.
     999902    2    1    2    0    0 -0.14729958671E-01 -0.18168486787E-01 -0.21152972286E-02  0.10204451096E+01  0.10201748290E+01 0.  0.
     999903    2    3    3    0    0  0.21296941171E-01 -0.67964975326E-01 -0.10917512350E+00  0.13182852514E+00  0.19666084382E-01 0.  0.
         14    1    1    2    0    0  0.14729958671E-01  0.18168486787E-01  0.21152972286E-02  0.23484890397E-01  0.00000000000E+00 0.  1.
     999901    1    3    3    0    0 -0.36026899842E-01  0.49796488539E-01  0.10705982627E+00  0.88861658446E+00  0.88000000000E+00 0. -1.
        -11    1    4    4    0    0  0.10719782689E-01 -0.14228067701E-01 -0.17122618862E-01  0.24714304544E-01  0.51100000000E-03 0.  1.
         11    1    4    4    0    0  0.10577158482E-01 -0.53736907625E-01 -0.92052504638E-01  0.10711422060E+00  0.51100000000E-03 0. -1.
</event>
<event>
 8    1  0.1093753E+005  0.1043930E+01  0.7957747E-01            NaN
         13   -1    0    0    0    0  0.00000000000E+00  0.00000000000E+00  0.74505805969E-08  0.10566000000E+00  0.10566000000E+00 0.  1.
     999900   -1    0    0    0    0 -0.00000000000E+00 -0.00000000000E+00 -0.74505805969E-08  0.93827000000E+00  0.93827000000E+00 0.  1.
     999902    2    1    2    0    0 -0.27714401417E-02  0.11557355646E-01  0.87703390642E-02  0.10291593468E+01  0.10290533460E+01 0.  0.
     999903    2    3    3    0    0 -0.81168111451E-01  0.50575277249E-01  0.10022037839E+00  0.14009717459E+00  0.20903901540E-01 0.  0.
         14    1    1    2    0    0  0.27714401417E-02 -0.11557355646E-01 -0.87703390642E-02  0.14770653245E-01  0.00000000000E+00 0.  1.
     999901    1    3    3    0    0  0.78396671310E-01 -0.39017921602E-01 -0.91450039321E-01  0.88906217216E+00  0.88000000000E+00 0. -1.
        -11    1    4    4    0    0 -0.13448478352E-01  0.50356264508E-03  0.17086440924E-01  0.21755981471E-01  0.51100000000E-03 0.  1.
         11    1    4    4    0    0 -0.67719633100E-01  0.50071714604E-01  0.83133937462E-01  0.11834119312E+00  0.51100000000E-03 0. -1.
</event>
<event>
 8    1  0.1093753E+005  0.1043930E+01  0.7957747E-01            NaN
         13   -1    0    0    0    0  0.00000000000E+00  0.00000000000E+00  0.74505805969E-08  0.10566000000E+00  0.10566000000E+00 0. -1.
     999900   -1    0    0    0    0 -0.00000000000E+00 -0.00000000000E+00 -0.74505805969E-08  0.93827000000E+00  0.93827000000E+00 0.  1.
     999902    2    1    2    0    0 -0.94514194367E-02 -0.10292118593E-01 -0.17683668087E-01  0.10213918290E+01  0.10211431336E+01 0.  0.
     999903    2    3    3    0    0 -0.37903761685E-01 -0.69262950874E-01  0.10220632897E+00  0.13085226996E+00  0.21026919882E-01 0.  0.
         14    1    1    2    0    0  0.94514194367E-02  0.10292118593E-01  0.17683668087E-01  0.22538170989E-01  0.00000000000E+00 0. -1.
     999901    1    3    3    0    0  0.28452342249E-01  0.58970832280E-01 -0.11988999705E+00  0.89053955905E+00  0.88000000000E+00 0.  1.
        -11    1    4    4    0    0 -0.19105610712E-01 -0.42439293880E-01  0.75001577640E-01  0.88270129688E-01  0.51100000000E-03 0.  1.
         11    1    4    4    0    0 -0.18798150973E-01 -0.26823656993E-01  0.27204751326E-01  0.42582140273E-01  0.51100000000E-03 0. -1.
</event>
<event>
 8    1  0.1093753E+005  0.1043930E+01  0.7957747E-01            NaN
         13   -1    0    0    0    0  0.00000000000E+00  0.00000000000E+00  0.74505805969E-08  0.10566000000E+00  0.10566000000E+00 0. -1.
     999900   -1    0    0    0    0 -0.00000000000E+00 -0.00000000000E+00 -0.74505805969E-08  0.93827000000E+00  0.93827000000E+00 0.  1.
     999902    2    1    2    0    0 -0.18101242625E-01 -0.14526577897E-01 -0.36952186873E-02  0.10204282747E+01  0.10201576019E+01 0.  0.
     999903    2    3    3    0    0 -0.62414005807E-01 -0.11385334293E+00  0.22809742701E-01  0.13333643043E+00  0.20005686670E-01 0.  0.
         14    1    1    2    0    0  0.18101242625E-01  0.14526577897E-01  0.36952186873E-02  0.23501725279E-01  0.00000000000E+00 0. -1.
     999901    1    3    3    0    0  0.44312763182E-01  0.99326765036E-01 -0.26504961388E-01  0.88709184429E+00  0.88000000000E+00 0. -1.
        -11    1    4    4    0    0 -0.56350682794E-01 -0.10429138285E+00  0.26401494856E-01  0.12144707505E+00  0.51100000000E-03 0.  1.
         11    1    4    4    0    0 -0.60633230133E-02 -0.95619600855E-02 -0.35917521560E-02  0.11889355373E-01  0.51100000000E-03 0. -1.
</event>
<event>
 8    1  0.1093753E+005  0.1043930E+01  0.7957747E-01            NaN
         13   -1    0    0    0    0  0.00000000000E+00  0.00000000000E+00  0.74505805969E-08  0.10566000000E+00  0.10566000000E+00 0. -1.
     999900   -1    0    0    0    0 -0.00000000000E+00 -0.00000000000E+00 -0.74505805969E-08  0.93827000000E+00  0.93827000000E+00 0.  1.
     999902    2    1    2    0    0  0.15401141070E-01  0.75452632029E-02  0.16351664046E-01  0.10202339442E+01  0.10199587236E+01 0.  0.
     999903    2    3    3    0    0  0.85330927036E-01  0.89624395265E-01  0.45250070818E-01  0.13318136583E+00  0.19385766965E-01 0.  0.
         14    1    1    2    0    0 -0.15401141070E-01 -0.75452632029E-02 -0.16351664046E-01  0.23696055793E-01  0.00000000000E+00 0.  1.
     999901    1    3    3    0    0 -0.69929785966E-01 -0.82079132062E-01 -0.28898406772E-01  0.88705257837E+00  0.88000000000E+00 0.  1.
        -11    1    4    4    0    0  0.58977010668E-01  0.48333118255E-01  0.28633893275E-01  0.81452679960E-01  0.51100000000E-03 0. -1.
         11    1    4    4    0    0  0.26353916367E-01  0.41291277010E-01  0.16616177544E-01  0.51728685873E-01  0.51100000000E-03 0.  1.
</event>
<event>
 8    1  0.1093753E+005  0.1043930E+01  0.7957747E-01            NaN
         13   -1    0    0    0    0  0.00000000000E+00  0.00000000000E+00  0.74505805969E-08  0.10566000000E+00  0.10566000000E+00 0. -1.
     999900   -1    0    0    0    0 -0.00000000000E+00 -0.00000000000E+00 -0.74505805969E-08  0.93827000000E+00  0.93827000000E+00 0. -1.
     999902    2    1    2    0    0 -0.42512574407E-02  0.16979773387E-01 -0.16411240725E-01  0.10199359441E+01  0.10196536743E+01 0.  0.
     999903    2    3    3    0    0  0.86733077445E-01  0.93200834311E-01 -0.28002818714E-01  0.13189193398E+00  0.20057471238E-01 0.  0.
         14    1    1    2    0    0  0.42512574407E-02 -0.16979773387E-01  0.16411240725E-01  0.23994055852E-01  0.00000000000E+00 0. -1.
     999901    1    3    3    0    0 -0.90984334886E-01 -0.76221060924E-01  0.11591577989E-01  0.88804401017E+00  0.88000000000E+00 0.  1.
        -11    1    4    4    0    0  0.36445883893E-01  0.43029733776E-01 -0.22248076159E-01  0.60622590306E-01  0.51100000000E-03 0.  1.
         11    1    4    4    0    0  0.50287193553E-01  0.50171100534E-01 -0.57547425547E-02  0.71269343670E-01  0.51100000000E-03 0. -1.
</event>
<event>
 8    1  0.1093753E+005  0.1043930E+01  0.7957747E-01            NaN
         13   -1    0    0    0    0  0.00000000000E+00  0.00000000000E+00  0.74505805969E-08  0.10566000000E+00  0.10566000000E+00 0. -1.
     999900   -1    0    0    0    0 -0.00000000000E+00 -0.00000000000E+00 -0.74505805969E-08  0.93827000000E+00  0.93827000000E+00 0.  1.
     999902    2    1    2    0    0 -0.45549459631E-02 -0.21157548230E-01  0.93896007798E-02  0.10203386036E+01  0.10200658371E+01 0.  0.
     999903    2    3    3    0    0  0.27629937333E-01 -0.11938804775E+00 -0.46362706691E-01  0.13253602561E+00  0.19984447218E-01 0.  0.
         14    1    1    2    0    0  0.45549459631E-02  0.21157548230E-01 -0.93896007798E-02  0.23591396369E-01  0.00000000000E+00 0.  1.
     999901    1    3    3    0    0 -0.32184883296E-01  0.98230499520E-01  0.55752307471E-01  0.88780257802E+00  0.88000000000E+00 0. -1.
        -11    1    4    4    0    0  0.15401991512E-02 -0.12844992609E-01 -0.11826690166E-01  0.17535614327E-01  0.51100000000E-03 0. -1.
         11    1    4    4    0    0  0.26089738182E-01 -0.10654305514E+00 -0.34536016525E-01  0.11500041128E+00  0.51100000000E-03 0.  1.
</event>
<event>
 8    1  0.1093753E+005  0.1043930E+01  0.7957747E-01            NaN
         13   -1    0    0    0    0  0.00000000000E+00  0.00000000000E+00  0.74505805969E-08  0.10566000000E+00  0.10566000000E+00 0. -1.
     999900   -1    0    0    0    0 -0.00000000000E+00 -0.00000000000E+00 -0.74505805969E-08  0.93827000000E+00  0.93827000000E+00 0.  1.
     999902    2    1    2    0    0  0.42064145453E-02  0.51259047473E-02 -0.22939532103E-01  0.10200513284E+01  0.10197717988E+01 0.  0.
     999903    2    3    3    0    0  0.12822425073E+00 -0.16198885753E-01 -0.80319941360E-02  0.13097461348E+00  0.19646222809E-01 0.  0.
         14    1    1    2    0    0 -0.42064145453E-02 -0.51259047473E-02  0.22939532103E-01  0.23878671569E-01  0.00000000000E+00 0. -1.
     999901    1    3    3    0    0 -0.12401783619E+00  0.21324790501E-01 -0.14907537967E-01  0.88907671495E+00  0.88000000000E+00 0. -1.
        -11    1    4    4    0    0  0.96727462161E-01 -0.12479797890E-01  0.24692182815E-02  0.97561803240E-01  0.51100000000E-03 0. -1.
         11    1    4    4    0    0  0.31496788571E-01 -0.37190878629E-02 -0.10501212417E-01  0.33412810239E-01  0.51100000000E-03 0.  1.
</event>
<event>
 8    1  0.1093753E+005  0.1043930E+01  0.7957747E-01            NaN
         13   -1    0    0    0    0  0.00000000000E+00  0.00000000000E+00  0.74505805969E-08  0.10566000000E+00  0.10566000000E+00 0. -1.
     999900   -1    0    0    0    0 -0.00000000000E+00 -0.00000000000E+00 -0.74505805969E-08  0.93827000000E+00  0.93827000000E+00 0. -1.
     999902    2    1    2    0    0  0.13414072435E-01  0.49153162574E-02 -0.20648519876E-01  0.10188210564E+01  0.10185116033E+01 0.  0.
     999903    2    3    3    0    0 -0.34715013696E-01  0.50614289469E-01 -0.11440827682E+00  0.13135517141E+00  0.19949656049E-01 0.  0.
         14    1    1    2    0    0 -0.13414072435E-01 -0.49153162574E-02  0.20648519876E-01  0.25108943551E-01  0.00000000000E+00 0. -1.
     999901    1    3    3    0    0  0.48129086131E-01 -0.45698973212E-01  0.93759756946E-01  0.88746588504E+00  0.88000000000E+00 0.  1.
        -11    1    4    4    0    0 -0.11877498310E-01  0.76776520151E-02 -0.40304606460E-01  0.42717019201E-01  0.51100000000E-03 0.  1.
         11    1    4    4    0    0 -0.22837515387E-01  0.42936637454E-01 -0.74103670362E-01  0.88638152209E-01  0.51100000000E-03 0. -1.
</event>
<event>
 8    1  0.1093753E+005  0.1043930E+01  0.7957747E-01            NaN
         13   -1    0    0    0    0  0.00000000000E+00  0.00000000000E+00  0.74505805969E-08  0.10566000000E+00  0.10566000000E+00 0.  1.
     999900   -1    0    0    0    0 -0.00000000000E+00 -0.00000000000E+00 -0.74505805969E-08  0.93827000000E+00  0.93827000000E+00 0. -1.
     999902    2    1    2    0    0 -0.69729718533E-02 -0.13860941483E-01  0.16377280545E-01  0.10213697838E+01  0.10211205962E+01 0.  0.
     999903    2    3    3    0    0  0.28961786657E-02 -0.96705287640E-01 -0.86035576833E-01  0.13151081795E+00  0.23079736725E-01 0.  0.
         14    1    1    2    0    0  0.69729718533E-02  0.13860941483E-01 -0.16377280545E-01  0.22560216162E-01  0.00000000000E+00 0. -1.
     999901    1    3    3    0    0 -0.98691505190E-02  0.82844346157E-01  0.10241285738E+00  0.88985896589E+00  0.88000000000E+00 0.  1.
        -11    1    4    4    0    0  0.67653843461E-02 -0.65161584266E-01 -0.44450861062E-01  0.79170339520E-01  0.51100000000E-03 0.  1.
         11    1    4    4    0    0 -0.38692056804E-02 -0.31543703374E-01 -0.41584715771E-01  0.52340478426E-01  0.51100000000E-03 0. -1.
</event>
<event>
 8    1  0.1093753E+005  0.1043930E+01  0.7957747E-01            NaN
         13   -1    0    0    0    0  0.00000000000E+00  0.00000000000E+00  0.74505805969E-08  0.10566000000E+00  0.10566000000E+00 0.  1.
     999900   -1    0    0    0    0 -0.00000000000E+00 -0.00000000000E+00 -0.74505805969E-08  0.93827000000E+00  0.93827000000E+00 0.  1.
     999902    2    1    2    0    0  0.87799354281E-02 -0.23180927817E-01  0.17095312557E-01  0.10138186667E+01  0.10133714011E+01 0.  0.
     999903    2    3    3    0    0 -0.11078726722E+00 -0.44752840945E-01 -0.28069543884E-01  0.12432356969E+00  0.19794325811E-01 0.  0.
         14    1    1    2    0    0 -0.87799354281E-02  0.23180927817E-01 -0.17095312557E-01  0.30111333281E-01  0.00000000000E+00 0. -1.
     999901    1    3    3    0    0  0.11956720265E+00  0.21571913128E-01  0.45164856441E-01  0.88949509703E+00  0.88000000000E+00 0.  1.
        -11    1    4    4    0    0 -0.83318876869E-01 -0.26090096949E-01 -0.25761218748E-01  0.91030928337E-01  0.51100000000E-03 0.  1.
         11    1    4    4    0    0 -0.27468390355E-01 -0.18662743996E-01 -0.23083251363E-02  0.33292641351E-01  0.51100000000E-03 0. -1.
</event>
<event>
 8    1  0.1093753E+005  0.1043930E+01  0.7957747E-01            NaN
         13   -1    0    0    0    0  0.00000000000E+00  0.00000000000E+00  0.74505805969E-08  0.10566000000E+00  0.10566000000E+00 0.  1.
     999900   -1    0    0    0    0 -0.00000000000E+00 -0.00000000000E+00 -0.74505805969E-08  0.93827000000E+00  0.93827000000E+00 0. -1.
     999902    2    1    2    0    0 -0.10789787536E-01  0.20123739060E-01 -0.28884814348E-02  0.10209141856E+01  0.10206547147E+01 0.  0.
     999903    2    3    3    0    0  0.73139057386E-01 -0.47582250101E-01  0.93080968851E-01  0.12915284566E+00  0.20074823511E-01 0.  0.
         14    1    1    2    0    0  0.10789787536E-01 -0.20123739060E-01  0.28884814348E-02  0.23015814429E-01  0.00000000000E+00 0.  1.
     999901    1    3    3    0    0 -0.83928844922E-01  0.67705989160E-01 -0.95969450286E-01  0.89176133991E+00  0.88000000000E+00 0.  1.
        -11    1    4    4    0    0  0.31404003250E-01 -0.11935514016E-01  0.45163819055E-01  0.56291203466E-01  0.51100000000E-03 0. -1.
         11    1    4    4    0    0  0.41735054136E-01 -0.35646736084E-01  0.47917149796E-01  0.72861642191E-01  0.51100000000E-03 0.  1.
</event>
<event>
 8    1  0.1093753E+005  0.1043930E+01  0.7957747E-01            NaN
         13   -1    0    0    0    0  0.00000000000E+00  0.00000000000E+00  0.74505805969E-08  0.10566000000E+00  0.10566000000E+00 0. -1.
     999900   -1    0    0    0    0 -0.00000000000E+00 -0.00000000000E+00 -0.74505805969E-08  0.93827000000E+00  0.93827000000E+00 0.  1.
     999902    2    1    2    0    0  0.13146517595E-01  0.48341530524E-02 -0.19311023846E-01  0.10200738561E+01  0.10197948599E+01 0.  0.
     999903    2    3    3    0    0 -0.10816421075E+00 -0.58410774563E-01  0.30194090807E-01  0.12812824672E+00  0.19845639703E-01 0.  0.
         14    1    1    2    0    0 -0.13146517595E-01 -0.48341530524E-02  0.19311023846E-01  0.23856143917E-01  0.00000000000E+00 0. -1.
     999901    1    3    3    0    0  0.12131072835E+00  0.63244927615E-01 -0.49505114653E-01  0.89194560936E+00  0.88000000000E+00 0. -1.
        -11    1    4    4    0    0 -0.36758219022E-01 -0.25293692140E-01  0.19477677292E-01  0.48688587590E-01  0.51100000000E-03 0.  1.
         11    1    4    4    0    0 -0.71405991732E-01 -0.33117082423E-01  0.10716413514E-01  0.79439659132E-01  0.51100000000E-03 0. -1.
</event>
<event>
 8    1  0.1093753E+005  0.1043930E+01  0.7957747E-01            NaN
         13   -1    0    0    0    0  0.00000000000E+00  0.00000000000E+00  0.74505805969E-08  0.10566000000E+00  0.10566000000E+00 0.  1.
     999900   -1    0    0    0    0 -0.00000000000E+00 -0.00000000000E+00 -0.74505805969E-08  0.93827000000E+00  0.93827000000E+00 0. -1.
     999902    2    1    2    0    0  0.48167673287E-03  0.16654377565E-01 -0.15976905425E-01  0.10208462002E+01  0.10205851766E+01 0.  0.
     999903    2    3    3    0    0  0.30784263330E-01  0.12747669208E+00  0.94161152614E-02  0.13301477612E+00  0.20156625378E-01 0.  0.
         14    1    1    2    0    0 -0.48167673287E-03 -0.16654377565E-01  0.15976905425E-01  0.23083799763E-01  0.00000000000E+00 0. -1.
     999901    1    3    3    0    0 -0.30302586597E-01 -0.11082231452E+00 -0.25393020686E-01  0.88783142412E+00  0.88000000000E+00 0. -1.
        -11    1    4    4    0    0  0.25015249491E-01  0.60975305354E-01  0.35570420796E-02  0.66005031926E-01  0.51100000000E-03 0. -1.
         11    1    4    4    0    0  0.57690138383E-02  0.66501386728E-01  0.58590731818E-02  0.67009744194E-01  0.51100000000E-03 0.  1.
</event>
<event>
 8    1  0.1093753E+005  0.1043930E+01  0.7957747E-01            NaN
         13   -1    0    0    0    0  0.00000000000E+00  0.00000000000E+00  0.74505805969E-08  0.10566000000E+00  0.10566000000E+00 0. -1.
     999900   -1    0    0    0    0 -0.00000000000E+00 -0.00000000000E+00 -0.74505805969E-08  0.93827000000E+00  0.93827000000E+00 0. -1.
     999902    2    1    2    0    0  0.11374423384E-01 -0.11205632539E-01 -0.17496754647E-01  0.10202428699E+01  0.10199678591E+01 0.  0.
     999903    2    3    3    0    0  0.49598510656E-01  0.26823398873E-02  0.11739870721E+00  0.12903540684E+00  0.20011810455E-01 0.  0.
         14    1    1    2    0    0 -0.11374423384E-01  0.11205632539E-01  0.17496754647E-01  0.23687130073E-01  0.00000000000E+00 0. -1.
     999901    1    3    3    0    0 -0.38224087272E-01 -0.13887972426E-01 -0.13489546186E+00  0.89120746308E+00  0.88000000000E+00 0. -1.
        -11    1    4    4    0    0  0.19907875850E-01 -0.26662815989E-02  0.70181094888E-01  0.73000546430E-01  0.51100000000E-03 0. -1.
         11    1    4    4    0    0  0.29690634805E-01  0.53486214862E-02  0.47217612324E-01  0.56034860413E-01  0.51100000000E-03 0.  1.
</event>
<event>
 8    1  0.1093753E+005  0.1043930E+01  0.7957747E-01            NaN
         13   -1    0    0    0    0  0.00000000000E+00  0.00000000000E+00  0.74505805969E-08  0.10566000000E+00  0.10566000000E+00 0. -1.
     999900   -1    0    0    0    0 -0.00000000000E+00 -0.00000000000E+00 -0.74505805969E-08  0.93827000000E+00  0.93827000000E+00 0. -1.
     999902    2    1    2    0    0 -0.71257778190E-02 -0.19620261049E-01 -0.88452198920E-02  0.10212591097E+01  0.10210074436E+01 0.  0.
     999903    2    3    3    0    0 -0.42504865496E-01 -0.83618247029E-01  0.91215119310E-01  0.13257497370E+00  0.21383424272E-01 0.  0.
         14    1    1    2    0    0  0.71257778190E-02  0.19620261049E-01  0.88452198920E-02  0.22670890324E-01  0.00000000000E+00 0.  1.
     999901    1    3    3    0    0  0.35379087677E-01  0.63997985980E-01 -0.10006033920E+00  0.88868413598E+00  0.88000000000E+00 0. -1.
        -11    1    4    4    0    0 -0.36309557691E-01 -0.67893862285E-01  0.62147088982E-01  0.98946866073E-01  0.51100000000E-03 0.  1.
         11    1    4    4    0    0 -0.61953078045E-02 -0.15724384744E-01  0.29068030328E-01  0.33628107626E-01  0.51100000000E-03 0. -1.
</event>
<event>
 8    1  0.1093753E+005  0.1043930E+01  0.7957747E-01            NaN
         13   -1    0    0    0    0  0.00000000000E+00  0.00000000000E+00  0.74505805969E-08  0.10566000000E+00  0.10566000000E+00 0. -1.
     999900   -1    0    0    0    0 -0.00000000000E+00 -0.00000000000E+00 -0.74505805969E-08  0.93827000000E+00  0.93827000000E+00 0.  1.
     999902    2    1    2    0    0  0.13174573979E-01 -0.67423056820E-02 -0.18651483630E-01  0.10201202136E+01  0.10198423135E+01 0.  0.
     999903    2    3    3    0    0  0.47307846575E-01 -0.11400314993E+00 -0.47150897698E-01  0.13249293509E+00  0.98193764244E-02 0.  0.
         14    1    1    2    0    0 -0.13174573979E-01  0.67423056820E-02  0.18651483630E-01  0.23809786371E-01  0.00000000000E+00 0. -1.
     999901    1    3    3    0    0 -0.34133272597E-01  0.10726084425E+00  0.28499414068E-01  0.88762727854E+00  0.88000000000E+00 0.  1.
        -11    1    4    4    0    0  0.39823799679E-01 -0.85585704548E-01 -0.37182134499E-01  0.10145747923E+00  0.51100000000E-03 0.  1.
         11    1    4    4    0    0  0.74840468960E-02 -0.28417445381E-01 -0.99687631989E-02  0.31035455863E-01  0.51100000000E-03 0. -1.
</event>
<event>
 8    1  0.1093753E+005  0.1043930E+01  0.7957747E-01            NaN
         13   -1    0    0    0    0  0.00000000000E+00  0.00000000000E+00  0.74505805969E-08  0.10566000000E+00  0.10566000000E+00 0.  1.
     999900   -1    0    0    0    0 -0.00000000000E+00 -0.00000000000E+00 -0.74505805969E-08  0.93827000000E+00  0.93827000000E+00 0. -1.
     999902    2    1    2    0    0  0.10063713736E-01  0.45300561920E-02 -0.19361522690E-01  0.10216439437E+01  0.10214008417E+01 0.  0.
     999903    2    3    3    0    0  0.11351074412E+00 -0.41703405300E-02 -0.68305310612E-01  0.13419113970E+00  0.20965823260E-01 0.  0.
         14    1    1    2    0    0 -0.10063713736E-01 -0.45300561920E-02  0.19361522690E-01  0.22286056272E-01  0.00000000000E+00 0.  1.
     999901    1    3    3    0    0 -0.10344703039E+00  0.87003967220E-02  0.48943787922E-01  0.88745280403E+00  0.88000000000E+00 0.  1.
        -11    1    4    4    0    0  0.55976465684E-02 -0.35274799150E-02 -0.31671539241E-03  0.66436579754E-02  0.51100000000E-03 0. -1.
         11    1    4    4    0    0  0.10791309756E+00 -0.64286061504E-03 -0.67988595220E-01  0.12754748173E+00  0.51100000000E-03 0.  1.
</event>
<event>
 8    1  0.1093753E+005  0.1043930E+01  0.7957747E-01            NaN
         13   -1    0    0    0    0  0.00000000000E+00  0.00000000000E+00  0.74505805969E-08  0.10566000000E+00  0.10566000000E+00 0.  1.
     999900   -1    0    0    0    0 -0.00000000000E+00 -0.00000000000E+00 -0.74505805969E-08  0.93827000000E+00  0.93827000000E+00 0. -1.
     999902    2    1    2    0    0 -0.11118975996E-01 -0.13749872830E-01 -0.15715658411E-01  0.10202726005E+01  0.10199982877E+01 0.  0.
     999903    2    3    3    0    0  0.12320064542E+00  0.19324479537E-01  0.24048295579E-01  0.12857935422E+00  0.20062284770E-01 0.  0.
         14    1    1    2    0    0  0.11118975996E-01  0.13749872830E-01  0.15715658411E-01  0.23657399463E-01  0.00000000000E+00 0.  1.
     999901    1    3    3    0    0 -0.13431962142E+00 -0.33074352367E-01 -0.39763953990E-01  0.89169324631E+00  0.88000000000E+00 0.  1.
        -11    1    4    4    0    0  0.51597427821E-01  0.10852134608E-01  0.19888560267E-01  0.56354940634E-01  0.51100000000E-03 0.  1.
         11    1    4    4    0    0  0.71603217603E-01  0.84723449289E-02  0.41597353123E-02  0.72224413591E-01  0.51100000000E-03 0. -1.
</event>
<event>
 8    1  0.1093753E+005  0.1043930E+01  0.7957747E-01            NaN
         13   -1    0    0    0    0  0.00000000000E+00  0.00000000000E+00  0.74505805969E-08  0.10566000000E+00  0.10566000000E+00 0. -1.
     999900   -1    0    0    0    0 -0.00000000000E+00 -0.00000000000E+00 -0.74505805969E-08  0.93827000000E+00  0.93827000000E+00 0. -1.
     999902    2    1    2    0    0 -0.22670640873E-01 -0.80012763206E-02  0.19215145474E-03  0.10198880512E+01  0.10196046399E+01 0.  0.
     999903    2    3    3    0    0 -0.11129609943E+00  0.17032704417E-01 -0.66971714205E-01  0.13253684848E+00  0.20096540354E-01 0.  0.
         14    1    1    2    0    0  0.22670640873E-01  0.80012763206E-02 -0.19215145474E-03  0.24041948809E-01  0.00000000000E+00 0. -1.
     999901    1    3    3    0    0  0.88625458557E-01 -0.25033980738E-01  0.67163865660E-01  0.88735120271E+00  0.88000000000E+00 0.  1.
        -11    1    4    4    0    0 -0.21893222290E-01  0.99861082739E-03 -0.22462873804E-01  0.31387134727E-01  0.51100000000E-03 0. -1.
         11    1    4    4    0    0 -0.89402877140E-01  0.16034093590E-01 -0.44508840401E-01  0.10114971376E+00  0.51100000000E-03 0.  1.
</event>
<event>
 8    1  0.1093753E+005  0.1043930E+01  0.7957747E-01            NaN
         13   -1    0    0    0    0  0.00000000000E+00  0.00000000000E+00  0.74505805969E-08  0.10566000000E+00  0.10566000000E+00 0.  1.
     999900   -1    0    0    0    0 -0.00000000000E+00 -0.00000000000E+00 -0.74505805969E-08  0.93827000000E+00  0.93827000000E+00 0.  1.
     999902    2    1    2    0    0 -0.49258542839E-03  0.13416482620E-01  0.20155403398E-01  0.10197125490E+01  0.10194249348E+01 0.  0.
     999903    2    3    3    0    0  0.44635915670E-01 -0.65060025844E-01  0.10288755369E+00  0.13120832691E+00  0.20114781027E-01 0.  0.
         14    1    1    2    0    0  0.49258542839E-03 -0.13416482620E-01 -0.20155403398E-01  0.24217450989E-01  0.00000000000E+00 0. -1.
     999901    1    3    3    0    0 -0.45128501098E-01  0.78476508464E-01 -0.82732150296E-01  0.88850422210E+00  0.88000000000E+00 0.  1.
        -11    1    4    4    0    0  0.79211434085E-02 -0.49953812637E-02  0.22359674296E-01  0.24246948313E-01  0.51100000000E-03 0.  1.
         11    1    4    4    0    0  0.36714772261E-01 -0.60064644580E-01  0.80527879398E-01  0.10696137860E+00  0.51100000000E-03 0. -1.
</event>
<event>
 8    1  0.1093753E+005  0.1043930E+01  0.7957747E-01            NaN
         13   -1    0    0    0    0  0.00000000000E+00  0.00000000000E+00  0.74505805969E-08  0.10566000000E+00  0.10566000000E+00 0.  1.
     999900   -1    0    0    0    0 -0.00000000000E+00 -0.00000000000E+00 -0.74505805969E-08  0.93827000000E+00  0.93827000000E+00 0. -1.
     999902    2    1    2    0    0 -0.21484763219E-01  0.10822553754E-01 -0.40235102718E-02  0.10195391953E+01  0.10192473985E+01 0.  0.
     999903    2    3    3    0    0  0.42532964142E-01  0.11421878885E+00  0.41495534842E-01  0.13001064918E+00  0.18052831431E-01 0.  0.
         14    1    1    2    0    0  0.21484763219E-01 -0.10822553754E-01  0.40235102718E-02  0.24390804727E-01  0.00000000000E+00 0. -1.
     999901    1    3    3    0    0 -0.64017727361E-01 -0.10339623510E+00 -0.45519045114E-01  0.88952854609E+00  0.88000000000E+00 0. -1.
        -11    1    4    4    0    0  0.13890992462E-01  0.27613810399E-01  0.18156508501E-01  0.35852505049E-01  0.51100000000E-03 0. -1.
         11    1    4    4    0    0  0.28641971679E-01  0.86604978452E-01  0.23339026341E-01  0.94158144129E-01  0.51100000000E-03 0.  1.
</event>
<event>
 8    1  0.1093753E+005  0.1043930E+01  0.7957747E-01            NaN
         13   -1    0    0    0    0  0.00000000000E+00  0.00000000000E+00  0.74505805969E-08  0.10566000000E+00  0.10566000000E+00 0.  1.
     999900   -1    0    0    0    0 -0.00000000000E+00 -0.00000000000E+00 -0.74505805969E-08  0.93827000000E+00  0.93827000000E+00 0. -1.
     999902    2    1    2    0    0 -0.11313800763E-01  0.20988663560E-01 -0.27586884893E-02  0.10199271575E+01  0.10196446784E+01 0.  0.
     999903    2    3    3    0    0  0.51973267793E-01  0.11974667067E+00  0.33946697645E-02  0.13212297818E+00  0.20111486224E-01 0.  0.
         14    1    1    2    0    0  0.11313800763E-01 -0.20988663560E-01  0.27586884893E-02  0.24002842497E-01  0.00000000000E+00 0. -1.
     999901    1    3    3    0    0 -0.63287068556E-01 -0.98758007107E-01 -0.61533582538E-02  0.88780417933E+00  0.88000000000E+00 0. -1.
        -11    1    4    4    0    0  0.16261562831E-01  0.61200355802E-01  0.50078034660E-02  0.63523705753E-01  0.51100000000E-03 0. -1.
         11    1    4    4    0    0  0.35711704961E-01  0.58546314865E-01 -0.16131337015E-02  0.68599272422E-01  0.51100000000E-03 0.  1.
</event>
<event>
 8    1  0.1093753E+005  0.1043930E+01  0.7957747E-01            NaN
         13   -1    0    0    0    0  0.00000000000E+00  0.00000000000E+00  0.74505805969E-08  0.10566000000E+00  0.10566000000E+00 0. -1.
     999900   -1    0    0    0    0 -0.00000000000E+00 -0.00000000000E+00 -0.74505805969E-08  0.93827000000E+00  0.93827000000E+00 0.  1.
     999902    2    1    2    0    0 -0.17662782736E-01 -0.90735773740E-02 -0.12924428946E-01  0.10202372888E+01  0.10199621468E+01 0.  0.
     999903    2    3    3    0    0 -0.69518839536E-01  0.66125216030E-01 -0.89223215969E-01  0.13222523142E+00  0.17813374483E-01 0.  0.
         14    1    1    2    0    0  0.17662782736E-01  0.90735773740E-02  0.12924428946E-01  0.23692711198E-01  0.00000000000E+00 0. -1.
     999901    1    3    3    0    0  0.51856056800E-01 -0.75198793404E-01  0.76298787023E-01  0.88801205738E+00  0.88000000000E+00 0. -1.
        -11    1    4    4    0    0 -0.33185712048E-01  0.42652500425E-01 -0.54513908818E-01  0.76762977094E-01  0.51100000000E-03 0. -1.
         11    1    4    4    0    0 -0.36333127488E-01  0.23472715604E-01 -0.34709307151E-01  0.55462254325E-01  0.51100000000E-03 0.  1.
</event>
<event>
 8    1  0.1093753E+005  0.1043930E+01  0.7957747E-01            NaN
         13   -1    0    0    0    0  0.00000000000E+00  0.00000000000E+00  0.74505805969E-08  0.10566000000E+00  0.10566000000E+00 0. -1.
     999900   -1    0    0    0    0 -0.00000000000E+00 -0.00000000000E+00 -0.74505805969E-08  0.93827000000E+00  0.93827000000E+00 0.  1.
     999902    2    1    2    0    0  0.99658613494E-02  0.22514195623E-01  0.14946343352E-02  0.10192633965E+01  0.10189648817E+01 0.  0.
     999903    2    3    3    0    0 -0.27629517555E-01 -0.57690143219E-01 -0.10884839574E+00  0.12796000663E+00  0.20838598234E-01 0.  0.
         14    1    1    2    0    0 -0.99658613494E-02 -0.22514195623E-01 -0.14946343352E-02  0.24666603511E-01  0.00000000000E+00 0.  1.
     999901    1    3    3    0    0  0.37595378904E-01  0.80204338842E-01  0.11034303008E+00  0.89130338986E+00  0.88000000000E+00 0. -1.
        -11    1    4    4    0    0 -0.42687250120E-03 -0.22201520623E-01 -0.30214917983E-01  0.37500561700E-01  0.51100000000E-03 0.  1.
         11    1    4    4    0    0 -0.27202645054E-01 -0.35488622596E-01 -0.78633477760E-01  0.90459444932E-01  0.51100000000E-03 0. -1.
</event>
<event>
 8    1  0.1093753E+005  0.1043930E+01  0.7957747E-01            NaN
         13   -1    0    0    0    0  0.00000000000E+00  0.00000000000E+00  0.74505805969E-08  0.10566000000E+00  0.10566000000E+00 0.  1.
     999900   -1    0    0    0    0 -0.00000000000E+00 -0.00000000000E+00 -0.74505805969E-08  0.93827000000E+00  0.93827000000E+00 0. -1.
     999902    2    1    2    0    0 -0.17699906024E-01 -0.16007970661E-02 -0.18226396049E-01  0.10184731593E+01  0.10181549614E+01 0.  0.
     999903    2    3    3    0    0  0.69605993868E-01 -0.10427188365E+00  0.13218988066E-01  0.12765753061E+00  0.20101825119E-01 0.  0.
         14    1    1    2    0    0  0.17699906024E-01  0.16007970661E-02  0.18226396049E-01  0.25456840680E-01  0.00000000000E+00 0.  1.
     999901    1    3    3    0    0 -0.87305899892E-01  0.10267108658E+00 -0.31445384114E-01  0.89081562871E+00  0.88000000000E+00 0. -1.
        -11    1    4    4    0    0  0.23865769193E-01 -0.34314839682E-01  0.13956201040E-01  0.44069488652E-01  0.51100000000E-03 0. -1.
         11    1    4    4    0    0  0.45740224675E-01 -0.69957043968E-01 -0.73721297398E-03  0.83588041955E-01  0.51100000000E-03 0.  1.
</event>
<event>
 8    1  0.1093753E+005  0.1043930E+01  0.7957747E-01            NaN
         13   -1    0    0    0    0  0.00000000000E+00  0.00000000000E+00  0.74505805969E-08  0.10566000000E+00  0.10566000000E+00 0. -1.
     999900   -1    0    0    0    0 -0.00000000000E+00 -0.00000000000E+00 -0.74505805969E-08  0.93827000000E+00  0.93827000000E+00 0. -1.
     999902    2    1    2    0    0  0.88353956369E-02  0.23726862791E-01 -0.17663603588E-01  0.10130587978E+01  0.10125883155E+01 0.  0.
     999903    2    3    3    0    0  0.67511590057E-02 -0.79495366862E-01  0.87987855394E-01  0.12074640658E+00  0.21742596522E-01 0.  0.
         14    1    1    2    0    0 -0.88353956369E-02 -0.23726862791E-01  0.17663603588E-01  0.30871202206E-01  0.00000000000E+00 0. -1.
     999901    1    3    3    0    0  0.20842366312E-02  0.10322222965E+00 -0.10565145898E+00  0.89231239122E+00  0.88000000000E+00 0. -1.
        -11    1    4    4    0    0 -0.84388043969E-03 -0.68161553964E-02  0.72340727771E-03  0.69250666187E-02  0.51100000000E-03 0.  1.
         11    1    4    4    0    0  0.75950394454E-02 -0.72679211466E-01  0.87264448116E-01  0.11382133996E+00  0.51100000000E-03 0. -1.
</event>
<event>
 8    1  0.1093753E+005  0.1043930E+01  0.7957747E-01            NaN
         13   -1    0    0    0    0  0.00000000000E+00  0.00000000000E+00  0.74505805969E-08  0.10566000000E+00  0.10566000000E+00 0. -1.
     999900   -1    0    0    0    0 -0.00000000000E+00 -0.00000000000E+00 -0.74505805969E-08  0.93827000000E+00  0.93827000000E+00 0.  1.
     999902    2    1    2    0    0  0.10822441293E-01 -0.56104143708E-02  0.20392538601E-01  0.10201716832E+01  0.10198949974E+01 0.  0.
     999903    2    3    3    0    0  0.59262098986E-01  0.43351835094E-02 -0.11260470354E+00  0.12880555096E+00  0.19500269363E-01 0.  0.
         14    1    1    2    0    0 -0.10822441293E-01  0.56104143708E-02 -0.20392538601E-01  0.23758316766E-01  0.00000000000E+00 0.  1.
     999901    1    3    3    0    0 -0.48439657693E-01 -0.99455978801E-02  0.13299724214E+00  0.89136613228E+00  0.88000000000E+00 0. -1.
        -11    1    4    4    0    0  0.27255705647E-01  0.76130745965E-02 -0.36579016677E-01  0.46250599750E-01  0.51100000000E-03 0.  1.
         11    1    4    4    0    0  0.32006393339E-01 -0.32778910872E-02 -0.76025686864E-01  0.82554951206E-01  0.51100000000E-03 0. -1.
</event>
<event>
 8    1  0.1093753E+005  0.1043930E+01  0.7957747E-01            NaN
         13   -1    0    0    0    0  0.00000000000E+00  0.00000000000E+00  0.74505805969E-08  0.10566000000E+00  0.10566000000E+00 0.  1.
     999900   -1    0    0    0    0 -0.00000000000E+00 -0.00000000000E+00 -0.74505805969E-08  0.93827000000E+00  0.93827000000E+00 0.  1.
     999902    2    1    2    0    0  0.11258862202E-01  0.48485018837E-02  0.19766640521E-01  0.10206708077E+01  0.10204057564E+01 0.  0.
     999903    2    3    3    0    0 -0.80511429011E-01  0.49788087453E-01 -0.85350672619E-01  0.12854357338E+00  0.16666405975E-01 0.  0.
         14    1    1    2    0    0 -0.11258862202E-01 -0.48485018837E-02 -0.19766640521E-01  0.23259192293E-01  0.00000000000E+00 0. -1.
     999901    1    3    3    0    0  0.91770291213E-01 -0.44939585569E-01  0.10511731314E+00  0.89212723432E+00  0.88000000000E+00 0.  1.
        -11    1    4    4    0    0 -0.45082310784E-01  0.37374156233E-01 -0.51024458073E-01  0.77672380821E-01  0.51100000000E-03 0. -1.
         11    1    4    4    0    0 -0.35429118227E-01  0.12413931219E-01 -0.34326214546E-01  0.50871192562E-01  0.51100000000E-03 0.  1.
</event>
<event>
 8    1  0.1093753E+005  0.1043930E+01  0.7957747E-01            NaN
         13   -1    0    0    0    0  0.00000000000E+00  0.00000000000E+00  0.74505805969E-08  0.10566000000E+00  0.10566000000E+00 0. -1.
     999900   -1    0    0    0    0 -0.00000000000E+00 -0.00000000000E+00 -0.74505805969E-08  0.93827000000E+00  0.93827000000E+00 0.  1.
     999902    2    1    2    0    0  0.11298500830E-01  0.21071664978E-01  0.63074205497E-02  0.10192023891E+01  0.10189023777E+01 0.  0.
     999903    2    3    3    0    0 -0.41683161404E-01 -0.10780033017E+00  0.48898768447E-01  0.12722196860E+00  0.20879238752E-01 0.  0.
         14    1    1    2    0    0 -0.11298500830E-01 -0.21071664978E-01 -0.63074205497E-02  0.24727610883E-01  0.00000000000E+00 0.  1.
     999901    1    3    3    0    0  0.52981662234E-01  0.12887199515E+00 -0.42591347897E-01  0.89198042051E+00  0.88000000000E+00 0.  1.
        -11    1    4    4    0    0 -0.13744939480E-01 -0.28908164507E-01  0.23649886496E-01  0.39801803837E-01  0.51100000000E-03 0. -1.
         11    1    4    4    0    0 -0.27938221924E-01 -0.78892165660E-01  0.25248881951E-01  0.87420164765E-01  0.51100000000E-03 0.  1.
</event>
<event>
 8    1  0.1093753E+005  0.1043930E+01  0.7957747E-01            NaN
         13   -1    0    0    0    0  0.00000000000E+00  0.00000000000E+00  0.74505805969E-08  0.10566000000E+00  0.10566000000E+00 0. -1.
     999900   -1    0    0    0    0 -0.00000000000E+00 -0.00000000000E+00 -0.74505805969E-08  0.93827000000E+00  0.93827000000E+00 0.  1.
     999902    2    1    2    0    0  0.20415896744E-01  0.22551103981E-02 -0.94133291826E-02  0.10213356394E+01  0.10210856885E+01 0.  0.
     999903    2    3    3    0    0  0.99361490711E-01 -0.59433632038E-01 -0.64317502536E-01  0.13395050547E+00  0.20023344580E-01 0.  0.
         14    1    1    2    0    0 -0.20415896744E-01 -0.22551103981E-02  0.94133291826E-02  0.22594360559E-01  0.00000000000E+00 0. -1.
     999901    1    3    3    0    0 -0.78945593968E-01  0.61688742436E-01  0.54904173354E-01  0.88738513398E+00  0.88000000000E+00 0. -1.
        -11    1    4    4    0    0  0.50551076054E-01 -0.41066099043E-01 -0.39711389135E-01  0.76282968800E-01  0.51100000000E-03 0. -1.
         11    1    4    4    0    0  0.48810414657E-01 -0.18367532995E-01 -0.24606113401E-01  0.57667536666E-01  0.51100000000E-03 0.  1.
</event>
<event>
 8    1  0.1093753E+005  0.1043930E+01  0.7957747E-01            NaN
         13   -1    0    0    0    0  0.00000000000E+00  0.00000000000E+00  0.74505805969E-08  0.10566000000E+00  0.10566000000E+00 0.  1.
     999900   -1    0    0    0    0 -0.00000000000E+00 -0.00000000000E+00 -0.74505805969E-08  0.93827000000E+00  0.93827000000E+00 0. -1.
     999902    2    1    2    0    0  0.16385692132E-01  0.15471616267E-01 -0.67566969766E-02  0.10204031054E+01  0.10201318457E+01 0.  0.
     999903    2    3    3    0    0 -0.71100511592E-01  0.71802595801E-02  0.10546401166E+00  0.12893461469E+00  0.19865503615E-01 0.  0.
         14    1    1    2    0    0 -0.16385692132E-01 -0.15471616267E-01  0.67566969766E-02  0.23526894623E-01  0.00000000000E+00 0. -1.
     999901    1    3    3    0    0  0.87486203724E-01  0.82913566871E-02 -0.11222070864E+00  0.89146849069E+00  0.88000000000E+00 0. -1.
        -11    1    4    4    0    0 -0.26370012008E-01 -0.64328143926E-02  0.44089930321E-01  0.51777810991E-01  0.51100000000E-03 0. -1.
         11    1    4    4    0    0 -0.44730499584E-01  0.13613073973E-01  0.61374081340E-01  0.77156803701E-01  0.51100000000E-03 0.  1.
</event>
<event>
 8    1  0.1093753E+005  0.1043930E+01  0.7957747E-01            NaN
         13   -1    0    0    0    0  0.00000000000E+00  0.00000000000E+00  0.74505805969E-08  0.10566000000E+00  0.10566000000E+00 0. -1.
     999900   -1    0    0    0    0 -0.00000000000E+00 -0.00000000000E+00 -0.74505805969E-08  0.93827000000E+00  0.93827000000E+00 0.  1.
     999902    2    1    2    0    0  0.23249150889E-01 -0.91162550111E-02  0.83078957435E-02  0.10176117505E+01  0.10172713623E+01 0.  0.
     999903    2    3    3    0    0 -0.64076131522E-01  0.10567761219E+00 -0.13657746825E-01  0.12559951613E+00  0.17753761755E-01 0.  0.
         14    1    1    2    0    0 -0.23249150889E-01  0.91162550111E-02 -0.83078957435E-02  0.26318249451E-01  0.00000000000E+00 0.  1.
     999901    1    3    3    0    0  0.87325282411E-01 -0.11479386720E+00  0.21965642568E-01  0.89201223442E+00  0.88000000000E+00 0.  1.
        -11    1    4    4    0    0 -0.38332263010E-01  0.56196452313E-01 -0.15573330755E-01  0.69786770894E-01  0.51100000000E-03 0. -1.
         11    1    4    4    0    0 -0.25743868512E-01  0.49481159872E-01  0.19155839302E-02  0.55812745239E-01  0.51100000000E-03 0.  1.
</event>
<event>
 8    1  0.1093753E+005  0.1043930E+01  0.7957747E-01            NaN
         13   -1    0    0    0    0  0.00000000000E+00  0.00000000000E+00  0.74505805969E-08  0.10566000000E+00  0.10566000000E+00 0.  1.
     999900   -1    0    0    0    0 -0.00000000000E+00 -0.00000000000E+00 -0.74505805969E-08  0.93827000000E+00  0.93827000000E+00 0.  1.
     999902    2    1    2    0    0  0.16480371911E-01 -0.20348533269E-01  0.64323844357E-02  0.10169663016E+01  0.10166087829E+01 0.  0.
     999903    2    3    3    0    0 -0.10034821034E+00  0.55200955574E-01 -0.44714531716E-01  0.12456916466E+00  0.20029443927E-01 0.  0.
         14    1    1    2    0    0 -0.16480371911E-01  0.20348533269E-01 -0.64323844357E-02  0.26963698449E-01  0.00000000000E+00 0.  1.
     999901    1    3    3    0    0  0.11682858225E+00 -0.75549488843E-01  0.51146916152E-01  0.89239713689E+00  0.88000000000E+00 0. -1.
        -11    1    4    4    0    0 -0.38411011409E-01  0.13514959410E-01 -0.23214033934E-01  0.46874432453E-01  0.51100000000E-03 0. -1.
         11    1    4    4    0    0 -0.61937198928E-01  0.41685996164E-01 -0.21500497783E-01  0.77694732210E-01  0.51100000000E-03 0.  1.
</event>
<event>
 8    1  0.1093753E+005  0.1043930E+01  0.7957747E-01            NaN
         13   -1    0    0    0    0  0.00000000000E+00  0.00000000000E+00  0.74505805969E-08  0.10566000000E+00  0.10566000000E+00 0.  1.
     999900   -1    0    0    0    0 -0.00000000000E+00 -0.00000000000E+00 -0.74505805969E-08  0.93827000000E+00  0.93827000000E+00 0. -1.
     999902    2    1    2    0    0  0.17344854836E-01  0.16939136913E-01 -0.23201301021E-03  0.10196847494E+01  0.10193964665E+01 0.  0.
     999903    2    3    3    0    0  0.10471610802E+00  0.77474613290E-01 -0.17779893766E-01  0.13311483790E+00  0.20872385197E-01 0.  0.
         14    1    1    2    0    0 -0.17344854836E-01 -0.16939136913E-01  0.23201301021E-03  0.24245250642E-01  0.00000000000E+00 0.  1.
     999901    1    3    3    0    0 -0.87371253183E-01 -0.60535476377E-01  0.17547880756E-01  0.88656991146E+00  0.88000000000E+00 0. -1.
        -11    1    4    4    0    0  0.17956193740E-01  0.24041152482E-01 -0.49046991455E-02  0.30409194349E-01  0.51100000000E-03 0. -1.
         11    1    4    4    0    0  0.86759914280E-01  0.53433460808E-01 -0.12875194621E-01  0.10270564355E+00  0.51100000000E-03 0.  1.
</event>
<event>
 8    1  0.1093753E+005  0.1043930E+01  0.7957747E-01            NaN
         13   -1    0    0    0    0  0.00000000000E+00  0.00000000000E+00  0.74505805969E-08  0.10566000000E+00  0.10566000000E+00 0.  1.
     999900   -1    0    0    0    0 -0.00000000000E+00 -0.00000000000E+00 -0.74505805969E-08  0.93827000000E+00  0.93827000000E+00 0. -1.
     999902    2    1    2    0    0 -0.17621275678E-01  0.16583782915E-01  0.18571161648E-02  0.10196610879E+01  0.10193722353E+01 0.  0.
     999903    2    3    3    0    0  0.59297123293E-01  0.11935861219E-01  0.11109761037E+00  0.12956472863E+00  0.28030809140E-01 0.  0.
         14    1    1    2    0    0  0.17621275678E-01 -0.16583782915E-01 -0.18571161648E-02  0.24268912064E-01  0.00000000000E+00 0.  1.
     999901    1    3    3    0    0 -0.76918398971E-01  0.46479216960E-02 -0.10924049421E+00  0.89009635931E+00  0.88000000000E+00 0. -1.
        -11    1    4    4    0    0  0.38920411137E-01  0.10545955236E-01  0.96106079620E-01  0.10422406265E+00  0.51100000000E-03 0.  1.
         11    1    4    4    0    0  0.20376712156E-01  0.13899059828E-02  0.14991530751E-01  0.25340665977E-01  0.51100000000E-03 0. -1.
</event>
<event>
 8    1  0.1093753E+005  0.1043930E+01  0.7957747E-01            NaN
         13   -1    0    0    0    0  0.00000000000E+00  0.00000000000E+00  0.74505805969E-08  0.10566000000E+00  0.10566000000E+00 0. -1.
     999900   -1    0    0    0    0 -0.00000000000E+00 -0.00000000000E+00 -0.74505805969E-08  0.93827000000E+00  0.93827000000E+00 0. -1.
     999902    2    1    2    0    0  0.75871931357E-02 -0.21754369567E-01  0.11172721096E-01  0.10183243797E+01  0.10180024040E+01 0.  0.
     999903    2    3    3    0    0 -0.68849975358E-01  0.22967071741E-01 -0.10190081800E+00  0.12668079995E+00  0.19910873300E-01 0.  0.
         14    1    1    2    0    0 -0.75871931357E-02  0.21754369567E-01 -0.11172721096E-01  0.25605620313E-01  0.00000000000E+00 0.  1.
     999901    1    3    3    0    0  0.76437168494E-01 -0.44721441309E-01  0.11307353910E+00  0.89164357974E+00  0.88000000000E+00 0.  1.
        -11    1    4    4    0    0 -0.24052466116E-01 -0.16642803682E-02 -0.31285310784E-01  0.39500920840E-01  0.51100000000E-03 0.  1.
         11    1    4    4    0    0 -0.44797509243E-01  0.24631352110E-01 -0.70615507218E-01  0.87179879111E-01  0.51100000000E-03 0. -1.
</event>
<event>
 8    1  0.1093753E+005  0.1043930E+01  0.7957747E-01            NaN
         13   -1    0    0    0    0  0.00000000000E+00  0.00000000000E+00  0.74505805969E-08  0.10566000000E+00  0.10566000000E+00 0. -1.
     999900   -1    0    0    0    0 -0.00000000000E+00 -0.00000000000E+00 -0.74505805969E-08  0.93827000000E+00  0.93827000000E+00 0. -1.
     999902    2    1    2    0    0  0.31396229713E-02 -0.14388899196E-02  0.23618872233E-01  0.10200599610E+01  0.10197806359E+01 0.  0.
     999903    2    3    3    0    0  0.12268592318E+00  0.31475724005E-01  0.28839916146E-01  0.13135193864E+00  0.19468797408E-01 0.  0.
         14    1    1    2    0    0 -0.31396229713E-02  0.14388899196E-02 -0.23618872233E-01  0.23870039007E-01  0.00000000000E+00 0.  1.
     999901    1    3    3    0    0 -0.11954630021E+00 -0.32914613925E-01 -0.52210439128E-02  0.88870802236E+00  0.88000000000E+00 0. -1.
        -11    1    4    4    0    0  0.41793464879E-01  0.20214052052E-01  0.87911018670E-02  0.47253002021E-01  0.51100000000E-03 0. -1.
         11    1    4    4    0    0  0.80892458299E-01  0.11261671953E-01  0.20048814279E-01  0.84098936615E-01  0.51100000000E-03 0.  1.
</event>
<event>
 8    1  0.1093753E+005  0.1043930E+01  0.7957747E-01            NaN
         13   -1    0    0    0    0  0.00000000000E+00  0.00000000000E+00  0.74505805969E-08  0.10566000000E+00  0.10566000000E+00 0. -1.
     999900   -1    0    0    0    0 -0.00000000000E+00 -0.00000000000E+00 -0.74505805969E-08  0.93827000000E+00  0.93827000000E+00 0. -1.
     999902    2    1    2    0    0 -0.38609605314E-02 -0.19315279638E-01  0.11569289381E-01  0.10210862809E+01  0.10208307194E+01 0.  0.
     999903    2    3    3    0    0 -0.56878301899E-01 -0.91911617193E-01 -0.73824423301E-01  0.13239445985E+00  0.19883684780E-01 0.  0.
         14    1    1    2    0    0  0.38609605314E-02  0.19315279638E-01 -0.11569289381E-01  0.22843719060E-01  0.00000000000E+00 0.  1.
     999901    1    3    3    0    0  0.53017341368E-01  0.72596337555E-01  0.85393712682E-01  0.88869182109E+00  0.88000000000E+00 0. -1.
        -11    1    4    4    0    0 -0.29526765440E-01 -0.30320360246E-01 -0.32221612797E-01  0.53194431805E-01  0.51100000000E-03 0. -1.
         11    1    4    4    0    0 -0.27351536459E-01 -0.61591256947E-01 -0.41602810504E-01  0.79200028042E-01  0.51100000000E-03 0.  1.
</event>
<event>
 7    1  0.1093753E+005  0.1043930E+01  0.7957747E-01            NaN
         13   -1    0    0    0    0  0.00000000000E+00  0.00000000000E+00  0.74505805969E-08  0.10566000000E+00  0.10566000000E+00 0.  1.
     999900   -1    0    0    0    0 -0.00000000000E+00 -0.00000000000E+00 -0.74505805969E-08  0.93827000000E+00  0.93827000000E+00 0. -1.
     999903    2    1    2    0    0 -0.33653365357E-01 -0.41341808005E-01  0.46958470474E-01  0.74208512280E-01  0.21450204117E-01 0.  0.
         14    1    1    2    0    0 -0.96822800001E-02  0.12312190208E-01 -0.85900921329E-01  0.87317265525E-01  0.00000000000E+00 0. -1.
     999901    1    1    2    0    0  0.43335645357E-01  0.29029617796E-01  0.38942450854E-01  0.88240422219E+00  0.88000000000E+00 0.  1.
        -11    1    3    3    0    0 -0.31504318661E-01 -0.31705114946E-01  0.27770285721E-01  0.52623058616E-01  0.51100000000E-03 0. -1.
         11    1    3    3    0    0 -0.21490466962E-02 -0.96366930586E-02  0.19188184753E-01  0.21585453665E-01  0.51100000000E-03 0.  1.
</event>
<event>
 8    1  0.1093753E+005  0.1043930E+01  0.7957747E-01            NaN
         13   -1    0    0    0    0  0.00000000000E+00  0.00000000000E+00  0.74505805969E-08  0.10566000000E+00  0.10566000000E+00 0. -1.
     999900   -1    0    0    0    0 -0.00000000000E+00 -0.00000000000E+00 -0.74505805969E-08  0.93827000000E+00  0.93827000000E+00 0. -1.
     999902    2    1    2    0    0  0.12683655451E-01 -0.34681479004E-02  0.19806007628E-01  0.10201564621E+01  0.10198794174E+01 0.  0.
     999903    2    3    3    0    0  0.23001721434E-01  0.12651057542E+00  0.85712344474E-02  0.13047834553E+00  0.20423704590E-01 0.  0.
         14    1    1    2    0    0 -0.12683655451E-01  0.34681479004E-02 -0.19806007628E-01  0.23773537886E-01  0.00000000000E+00 0.  1.
     999901    1    3    3    0    0 -0.10318065984E-01 -0.12997872332E+00  0.11234773181E-01  0.88967811659E+00  0.88000000000E+00 0.  1.
        -11    1    4    4    0    0  0.24330823326E-02  0.68429879953E-01  0.71164007330E-02  0.68843827903E-01  0.51100000000E-03 0. -1.
         11    1    4    4    0    0  0.20568639101E-01  0.58080695470E-01  0.14548337144E-02  0.61634517625E-01  0.51100000000E-03 0.  1.
</event>
<event>
 8    1  0.1093753E+005  0.1043930E+01  0.7957747E-01            NaN
         13   -1    0    0    0    0  0.00000000000E+00  0.00000000000E+00  0.74505805969E-08  0.10566000000E+00  0.10566000000E+00 0.  1.
     999900   -1    0    0    0    0 -0.00000000000E+00 -0.00000000000E+00 -0.74505805969E-08  0.93827000000E+00  0.93827000000E+00 0. -1.
     999902    2    1    2    0    0  0.24907933422E-02  0.22652037168E-01  0.52644783341E-02  0.10205412512E+01  0.10202732045E+01 0.  0.
     999903    2    3    3    0    0  0.10149522097E+00 -0.54951116352E-01  0.56436179024E-01  0.13012411911E+00  0.20647978202E-01 0.  0.
         14    1    1    2    0    0 -0.24907933422E-02 -0.22652037168E-01 -0.52644783341E-02  0.23388748822E-01  0.00000000000E+00 0.  1.
     999901    1    3    3    0    0 -0.99004427627E-01  0.77603153520E-01 -0.51171700690E-01  0.89041713207E+00  0.88000000000E+00 0. -1.
        -11    1    4    4    0    0  0.34695342493E-01 -0.87246409656E-02  0.21078512477E-01  0.41526509123E-01  0.51100000000E-03 0. -1.
         11    1    4    4    0    0  0.66799878476E-01 -0.46226475387E-01  0.35357666547E-01  0.88597609989E-01  0.51100000000E-03 0.  1.
</event>
<event>
 8    1  0.1093753E+005  0.1043930E+01  0.7957747E-01            NaN
         13   -1    0    0    0    0  0.00000000000E+00  0.00000000000E+00  0.74505805969E-08  0.10566000000E+00  0.10566000000E+00 0.  1.
     999900   -1    0    0    0    0 -0.00000000000E+00 -0.00000000000E+00 -0.74505805969E-08  0.93827000000E+00  0.93827000000E+00 0. -1.
     999902    2    1    2    0    0 -0.33605966610E-02 -0.10508795070E-01 -0.20886394357E-01  0.10203086145E+01  0.10200351459E+01 0.  0.
     999903    2    3    3    0    0 -0.73716569020E-01 -0.71713493166E-01 -0.81993182578E-01  0.13327421974E+00  0.21498325710E-01 0.  0.
         14    1    1    2    0    0  0.33605966610E-02  0.10508795070E-01  0.20886394357E-01  0.23621385501E-01  0.00000000000E+00 0.  1.
     999901    1    3    3    0    0  0.70355972359E-01  0.61204698096E-01  0.61106788220E-01  0.88703439476E+00  0.88000000000E+00 0. -1.
        -11    1    4    4    0    0 -0.71884564660E-01 -0.63349155698E-01 -0.79015393603E-01  0.12419420160E+00  0.51100000000E-03 0. -1.
         11    1    4    4    0    0 -0.18320043599E-02 -0.83643374684E-02 -0.29777889743E-02  0.90800181407E-02  0.51100000000E-03 0.  1.
</event>
<event>
 8    1  0.1093753E+005  0.1043930E+01  0.7957747E-01            NaN
         13   -1    0    0    0    0  0.00000000000E+00  0.00000000000E+00  0.74505805969E-08  0.10566000000E+00  0.10566000000E+00 0.  1.
     999900   -1    0    0    0    0 -0.00000000000E+00 -0.00000000000E+00 -0.74505805969E-08  0.93827000000E+00  0.93827000000E+00 0.  1.
     999902    2    1    2    0    0 -0.14148493473E-01  0.13900794741E-01  0.13849187941E-01  0.10197388452E+01  0.10194518628E+01 0.  0.
     999903    2    3    3    0    0 -0.25655124526E-01  0.84136590504E-01  0.97517570913E-01  0.13290973663E+00  0.20449209738E-01 0.  0.
         14    1    1    2    0    0  0.14148493473E-01 -0.13900794741E-01 -0.13849187941E-01  0.24191154760E-01  0.00000000000E+00 0. -1.
     999901    1    3    3    0    0  0.11506631052E-01 -0.70235795763E-01 -0.83668382972E-01  0.88682910861E+00  0.88000000000E+00 0.  1.
        -11    1    4    4    0    0 -0.75228512397E-03  0.25767149804E-01  0.37888393678E-01  0.45829067615E-01  0.51100000000E-03 0.  1.
         11    1    4    4    0    0 -0.24902839402E-01  0.58369440700E-01  0.59629177235E-01  0.87080669018E-01  0.51100000000E-03 0. -1.
</event>
<event>
 8    1  0.1093753E+005  0.1043930E+01  0.7957747E-01            NaN
         13   -1    0    0    0    0  0.00000000000E+00  0.00000000000E+00  0.74505805969E-08  0.10566000000E+00  0.10566000000E+00 0. -1.
     999900   -1    0    0    0    0 -0.00000000000E+00 -0.00000000000E+00 -0.74505805969E-08  0.93827000000E+00  0.93827000000E+00 0.  1.
     999902    2    1    2    0    0 -0.17192931906E-01 -0.87930789131E-02 -0.13715687104E-01  0.10202438180E+01  0.10199688294E+01 0.  0.
     999903    2    3    3    0    0  0.49982947131E-01  0.10668692628E+00 -0.49684334064E-01  0.12943408867E+00  0.20106094000E-01 0.  0.
         14    1    1    2    0    0  0.17192931906E-01  0.87930789131E-02  0.13715687104E-01  0.23686181985E-01  0.00000000000E+00 0. -1.
     999901    1    3    3    0    0 -0.67175879036E-01 -0.11548000520E+00  0.35968646960E-01  0.89080972934E+00  0.88000000000E+00 0. -1.
        -11    1    4    4    0    0  0.14488819575E-01  0.13559881838E-01 -0.78405195308E-02  0.21343175857E-01  0.51100000000E-03 0.  1.
         11    1    4    4    0    0  0.35494127556E-01  0.93127044445E-01 -0.41843814533E-01  0.10809091282E+00  0.51100000000E-03 0. -1.
</event>
<event>
 8    1  0.1093753E+005  0.1043930E+01  0.7957747E-01            NaN
         13   -1    0    0    0    0  0.00000000000E+00  0.00000000000E+00  0.74505805969E-08  0.10566000000E+00  0.10566000000E+00 0. -1.
     999900   -1    0    0    0    0 -0.00000000000E+00 -0.00000000000E+00 -0.74505805969E-08  0.93827000000E+00  0.93827000000E+00 0.  1.
     999902    2    1    2    0    0  0.12268004966E-01 -0.77003684351E-02 -0.19677589990E-01  0.10194962699E+01  0.10192034327E+01 0.  0.
     999903    2    3    3    0    0  0.12289175622E+00  0.74159297824E-03  0.40536972530E-01  0.13048857891E+00  0.16765720335E-01 0.  0.
         14    1    1    2    0    0 -0.12268004966E-01  0.77003684351E-02  0.19677589990E-01  0.24433730122E-01  0.00000000000E+00 0. -1.
     999901    1    3    3    0    0 -0.11062375125E+00 -0.84419614134E-02 -0.60214562520E-01  0.88900769096E+00  0.88000000000E+00 0. -1.
        -11    1    4    4    0    0  0.93961876659E-01 -0.10176084474E-02  0.23491667195E-01  0.96860669731E-01  0.51100000000E-03 0. -1.
         11    1    4    4    0    0  0.28929879560E-01  0.17592014257E-02  0.17045305335E-01  0.33627909183E-01  0.51100000000E-03 0.  1.
</event>
<event>
 8    1  0.1093753E+005  0.1043930E+01  0.7957747E-01            NaN
         13   -1    0    0    0    0  0.00000000000E+00  0.00000000000E+00  0.74505805969E-08  0.10566000000E+00  0.10566000000E+00 0.  1.
     999900   -1    0    0    0    0 -0.00000000000E+00 -0.00000000000E+00 -0.74505805969E-08  0.93827000000E+00  0.93827000000E+00 0. -1.
     999902    2    1    2    0    0  0.14493508643E-01  0.18407048448E-01 -0.40233655695E-02  0.10201588264E+01  0.10198818374E+01 0.  0.
     999903    2    3    3    0    0  0.11633328110E+00  0.44092904954E-02  0.58517558387E-01  0.13197042088E+00  0.20952642146E-01 0.  0.
         14    1    1    2    0    0 -0.14493508643E-01 -0.18407048448E-01  0.40233655695E-02  0.23771173633E-01  0.00000000000E+00 0.  1.
     999901    1    3    3    0    0 -0.10183977245E+00  0.13997757953E-01 -0.62540923956E-01  0.88818840549E+00  0.88000000000E+00 0. -1.
        -11    1    4    4    0    0  0.83887139291E-01  0.63773535699E-02  0.31977450344E-01  0.90003006775E-01  0.51100000000E-03 0.  1.
         11    1    4    4    0    0  0.32446141806E-01 -0.19680630745E-02  0.26540108042E-01  0.41967414101E-01  0.51100000000E-03 0. -1.
</event>
<event>
 8    1  0.1093753E+005  0.1043930E+01  0.7957747E-01            NaN
         13   -1    0    0    0    0  0.00000000000E+00  0.00000000000E+00  0.74505805969E-08  0.10566000000E+00  0.10566000000E+00 0. -1.
     999900   -1    0    0    0    0 -0.00000000000E+00 -0.00000000000E+00 -0.74505805969E-08  0.93827000000E+00  0.93827000000E+00 0. -1.
     999902    2    1    2    0    0 -0.14197992272E-01 -0.25510891030E-02  0.19064120673E-01  0.10200232700E+01  0.10197430753E+01 0.  0.
     999903    2    3    3    0    0 -0.82844354526E-01  0.52254845485E-01  0.87786916919E-01  0.13298390438E+00  0.19606633775E-01 0.  0.
         14    1    1    2    0    0  0.14197992272E-01  0.25510891030E-02 -0.19064120673E-01  0.23906729956E-01  0.00000000000E+00 0.  1.
     999901    1    3    3    0    0  0.68646362253E-01 -0.54805934588E-01 -0.68722796246E-01  0.88703936567E+00  0.88000000000E+00 0. -1.
        -11    1    4    4    0    0 -0.34516246076E-01  0.12622873949E-01  0.25431522129E-01  0.44695991193E-01  0.51100000000E-03 0.  1.
         11    1    4    4    0    0 -0.48328108450E-01  0.39631971537E-01  0.62355394789E-01  0.88287913185E-01  0.51100000000E-03 0. -1.
</event>
<event>
 8    1  0.1093753E+005  0.1043930E+01  0.7957747E-01            NaN
         13   -1    0    0    0    0  0.00000000000E+00  0.00000000000E+00  0.74505805969E-08  0.10566000000E+00  0.10566000000E+00 0. -1.
     999900   -1    0    0    0    0 -0.00000000000E+00 -0.00000000000E+00 -0.74505805969E-08  0.93827000000E+00  0.93827000000E+00 0. -1.
     999902    2    1    2    0    0 -0.19154203989E-01  0.58517214068E-03  0.10030108394E-01  0.10223006442E+01  0.10220718067E+01 0.  0.
     999903    2    3    3    0    0  0.11735543421E+00 -0.37231214933E-01  0.38505930639E-01  0.13051825322E+00  0.19845564359E-01 0.  0.
         14    1    1    2    0    0  0.19154203989E-01 -0.58517214068E-03 -0.10030108394E-01  0.21629355776E-01  0.00000000000E+00 0.  1.
     999901    1    3    3    0    0 -0.13650963820E+00  0.37816387073E-01 -0.28475822245E-01  0.89178239100E+00  0.88000000000E+00 0. -1.
        -11    1    4    4    0    0  0.24055734291E-01 -0.22794839334E-02  0.14323685143E-02  0.24211303143E-01  0.51100000000E-03 0. -1.
         11    1    4    4    0    0  0.93299699920E-01 -0.34951730999E-01  0.37073562125E-01  0.10630695008E+00  0.51100000000E-03 0.  1.
</event>
<event>
 8    1  0.1093753E+005  0.1043930E+01  0.7957747E-01            NaN
         13   -1    0    0    0    0  0.00000000000E+00  0.00000000000E+00  0.74505805969E-08  0.10566000000E+00  0.10566000000E+00 0.  1.
     999900   -1    0    0    0    0 -0.00000000000E+00 -0.00000000000E+00 -0.74505805969E-08  0.93827000000E+00  0.93827000000E+00 0.  1.
     999902    2    1    2    0    0  0.21805404751E-01 -0.66141399056E-03 -0.90938345911E-02  0.10202950477E+01  0.10200212612E+01 0.  0.
     999903    2    3    3    0    0  0.10451119549E+00 -0.99566873674E-02  0.77602882165E-01  0.13212672429E+00  0.20335642255E-01 0.  0.
         14    1    1    2    0    0 -0.21805404751E-01  0.66141399056E-03  0.90938345911E-02  0.23634952346E-01  0.00000000000E+00 0. -1.
     999901    1    3    3    0    0 -0.82705790738E-01  0.92952733769E-02 -0.86696716756E-01  0.88816832336E+00  0.88000000000E+00 0.  1.
        -11    1    4    4    0    0  0.27810930277E-01 -0.34332372857E-02  0.32469090611E-01  0.42892166268E-01  0.51100000000E-03 0. -1.
         11    1    4    4    0    0  0.76700265212E-01 -0.65234500817E-02  0.45133791555E-01  0.89234558023E-01  0.51100000000E-03 0.  1.
</event>
<event>
 8    1  0.1093753E+005  0.1043930E+01  0.7957747E-01            NaN
         13   -1    0    0    0    0  0.00000000000E+00  0.00000000000E+00  0.74505805969E-08  0.10566000000E+00  0.10566000000E+00 0. -1.
     999900   -1    0    0    0    0 -0.00000000000E+00 -0.00000000000E+00 -0.74505805969E-08  0.93827000000E+00  0.93827000000E+00 0.  1.
     999902    2    1    2    0    0 -0.22887052927E-01  0.21288724676E-02 -0.49497546754E-02  0.10204172511E+01  0.10201463214E+01 0.  0.
     999903    2    3    3    0    0 -0.12679061498E+00 -0.36474593865E-01 -0.40658601524E-02  0.13346349859E+00  0.19741281442E-01 0.  0.
         14    1    1    2    0    0  0.22887052927E-01 -0.21288724676E-02  0.49497546754E-02  0.23512748904E-01  0.00000000000E+00 0. -1.
     999901    1    3    3    0    0  0.10390356205E+00  0.38603466333E-01 -0.88389452303E-03  0.88695375251E+00  0.88000000000E+00 0. -1.
        -11    1    4    4    0    0 -0.79828283235E-01 -0.31430551273E-01 -0.73854875923E-02  0.86111793070E-01  0.51100000000E-03 0. -1.
         11    1    4    4    0    0 -0.46962331740E-01 -0.50440425918E-02  0.33196274399E-02  0.47351705518E-01  0.51100000000E-03 0.  1.
</event>
<event>
 8    1  0.1093753E+005  0.1043930E+01  0.7957747E-01            NaN
         13   -1    0    0    0    0  0.00000000000E+00  0.00000000000E+00  0.74505805969E-08  0.10566000000E+00  0.10566000000E+00 0. -1.
     999900   -1    0    0    0    0 -0.00000000000E+00 -0.00000000000E+00 -0.74505805969E-08  0.93827000000E+00  0.93827000000E+00 0. -1.
     999902    2    1    2    0    0  0.16947281260E-01  0.15600225150E-01 -0.34182809204E-02  0.10206434801E+01  0.10203777983E+01 0.  0.
     999903    2    3    3    0    0  0.12781260317E-01  0.10639364941E+00  0.75295937236E-01  0.13246741093E+00  0.19878821505E-01 0.  0.
         14    1    1    2    0    0 -0.16947281260E-01 -0.15600225150E-01  0.34182809204E-02  0.23286519948E-01  0.00000000000E+00 0.  1.
     999901    1    3    3    0    0  0.41660209433E-02 -0.90793424260E-01 -0.78714218156E-01  0.88817606912E+00  0.88000000000E+00 0. -1.
        -11    1    4    4    0    0 -0.28937311506E-02  0.58495287501E-01  0.41643438700E-01  0.71864521480E-01  0.51100000000E-03 0.  1.
         11    1    4    4    0    0  0.15674991468E-01  0.47898361909E-01  0.33652498536E-01  0.60602889451E-01  0.51100000000E-03 0. -1.
</event>
<event>
 8    1  0.1093753E+005  0.1043930E+01  0.7957747E-01            NaN
         13   -1    0    0    0    0  0.00000000000E+00  0.00000000000E+00  0.74505805969E-08  0.10566000000E+00  0.10566000000E+00 0. -1.
     999900   -1    0    0    0    0 -0.00000000000E+00 -0.00000000000E+00 -0.74505805969E-08  0.93827000000E+00  0.93827000000E+00 0. -1.
     999902    2    1    2    0    0  0.13292612844E-01  0.30512315373E-02 -0.19122664424E-01  0.10204421337E+01  0.10201717837E+01 0.  0.
     999903    2    3    3    0    0  0.56676983236E-01 -0.11559948888E+00  0.12163930312E-01  0.13086973748E+00  0.20084937893E-01 0.  0.
         14    1    1    2    0    0 -0.13292612844E-01 -0.30512315373E-02  0.19122664424E-01  0.23487866331E-01  0.00000000000E+00 0.  1.
     999901    1    3    3    0    0 -0.43384370392E-01  0.11865072042E+00 -0.31286594735E-01  0.88957239619E+00  0.88000000000E+00 0.  1.
        -11    1    4    4    0    0  0.21537532894E-01 -0.37523399111E-01  0.13219220858E-01  0.45242454897E-01  0.51100000000E-03 0. -1.
         11    1    4    4    0    0  0.35139450342E-01 -0.78076089767E-01 -0.10552905461E-02  0.85627282584E-01  0.51100000000E-03 0.  1.
</event>
<event>
 8    1  0.1093753E+005  0.1043930E+01  0.7957747E-01            NaN
         13   -1    0    0    0    0  0.00000000000E+00  0.00000000000E+00  0.74505805969E-08  0.10566000000E+00  0.10566000000E+00 0.  1.
     999900   -1    0    0    0    0 -0.00000000000E+00 -0.00000000000E+00 -0.74505805969E-08  0.93827000000E+00  0.93827000000E+00 0.  1.
     999902    2    1    2    0    0  0.14599710297E-01 -0.14377827570E-01  0.10687935494E-01  0.10208192789E+01  0.10205576391E+01 0.  0.
     999903    2    3    3    0    0  0.58602987391E-01 -0.11727287720E+00  0.73266379784E-02  0.13372572238E+00  0.25330837809E-01 0.  0.
         14    1    1    2    0    0 -0.14599710297E-01  0.14377827570E-01 -0.10687935494E-01  0.23110721138E-01  0.00000000000E+00 0. -1.
     999901    1    3    3    0    0 -0.44003277094E-01  0.10289504963E+00  0.33612975152E-02  0.88709355648E+00  0.88000000000E+00 0. -1.
        -11    1    4    4    0    0  0.37135733938E-01 -0.79090475450E-01 -0.69482116998E-02  0.87652180856E-01  0.51100000000E-03 0. -1.
         11    1    4    4    0    0  0.21467253453E-01 -0.38182401749E-01  0.14274849678E-01  0.46073541523E-01  0.51100000000E-03 0.  1.
</event>
<event>
 8    1  0.1093753E+005  0.1043930E+01  0.7957747E-01            NaN
         13   -1    0    0    0    0  0.00000000000E+00  0.00000000000E+00  0.74505805969E-08  0.10566000000E+00  0.10566000000E+00 0. -1.
     999900   -1    0    0    0    0 -0.00000000000E+00 -0.00000000000E+00 -0.74505805969E-08  0.93827000000E+00  0.93827000000E+00 0.  1.
     999902    2    1    2    0    0 -0.33557915989E-02 -0.22246246781E-01  0.16162063721E-02  0.10213740927E+01  0.10211250013E+01 0.  0.
     999903    2    3    3    0    0 -0.64354458318E-01  0.17936765138E-01 -0.11118682760E+00  0.13117184807E+00  0.19501775453E-01 0.  0.
         14    1    1    2    0    0  0.33557915989E-02  0.22246246781E-01 -0.16162063721E-02  0.22555907344E-01  0.00000000000E+00 0. -1.
     999901    1    3    3    0    0  0.60998666719E-01 -0.40183011918E-01  0.11280303397E+00  0.89020224458E+00  0.88000000000E+00 0. -1.
        -11    1    4    4    0    0 -0.85014424304E-02  0.41812621286E-02 -0.58353934472E-02  0.11138689962E-01  0.51100000000E-03 0.  1.
         11    1    4    4    0    0 -0.55853015888E-01  0.13755503009E-01 -0.10535143415E+00  0.12003315811E+00  0.51100000000E-03 0. -1.
</event>
<event>
 8    1  0.1093753E+005  0.1043930E+01  0.7957747E-01            NaN
         13   -1    0    0    0    0  0.00000000000E+00  0.00000000000E+00  0.74505805969E-08  0.10566000000E+00  0.10566000000E+00 0.  1.
     999900   -1    0    0    0    0 -0.00000000000E+00 -0.00000000000E+00 -0.74505805969E-08  0.93827000000E+00  0.93827000000E+00 0.  1.
     999902    2    1    2    0    0  0.12480867815E-01 -0.18999200388E-01 -0.94810521265E-02  0.10193000989E+01  0.10190024827E+01 0.  0.
     999903    2    3    3    0    0 -0.10546550206E+00 -0.57619502603E-01  0.42648806345E-01  0.12906395271E+00  0.19889796433E-01 0.  0.
         14    1    1    2    0    0 -0.12480867815E-01  0.18999200388E-01  0.94810521265E-02  0.24629901060E-01  0.00000000000E+00 0.  1.
     999901    1    3    3    0    0  0.11794636987E+00  0.38620302216E-01 -0.52129858471E-01  0.89023614623E+00  0.88000000000E+00 0. -1.
        -11    1    4    4    0    0 -0.23320440459E-01 -0.19883390854E-01  0.46434906400E-02  0.31000246795E-01  0.51100000000E-03 0. -1.
         11    1    4    4    0    0 -0.82145061599E-01 -0.37736111750E-01  0.38005315705E-01  0.98063705916E-01  0.51100000000E-03 0.  1.
</event>
<event>
 8    1  0.1093753E+005  0.1043930E+01  0.7957747E-01            NaN
         13   -1    0    0    0    0  0.00000000000E+00  0.00000000000E+00  0.74505805969E-08  0.10566000000E+00  0.10566000000E+00 0.  1.
     999900   -1    0    0    0    0 -0.00000000000E+00 -0.00000000000E+00 -0.74505805969E-08  0.93827000000E+00  0.93827000000E+00 0.  1.
     999902    2    1    2    0    0 -0.21462719887E-01 -0.12648373401E-01  0.60237528182E-02  0.10182996412E+01  0.10179770351E+01 0.  0.
     999903    2    3    3    0    0  0.37716473466E-01 -0.65614310218E-02  0.12134529414E+00  0.12878388209E+00  0.19875188802E-01 0.  0.
         14    1    1    2    0    0  0.21462719887E-01  0.12648373401E-01 -0.60237528182E-02  0.25630358809E-01  0.00000000000E+00 0. -1.
     999901    1    3    3    0    0 -0.59179193353E-01 -0.60869423795E-02 -0.11532154132E+00  0.88951575910E+00  0.88000000000E+00 0.  1.
        -11    1    4    4    0    0  0.26953178551E-01 -0.76476028638E-02  0.56797557885E-01  0.63333903766E-01  0.51100000000E-03 0.  1.
         11    1    4    4    0    0  0.10763294915E-01  0.10861718420E-02  0.64547736252E-01  0.65449978327E-01  0.51100000000E-03 0. -1.
</event>
<event>
 8    1  0.1093753E+005  0.1043930E+01  0.7957747E-01            NaN
         13   -1    0    0    0    0  0.00000000000E+00  0.00000000000E+00  0.74505805969E-08  0.10566000000E+00  0.10566000000E+00 0. -1.
     999900   -1    0    0    0    0 -0.00000000000E+00 -0.00000000000E+00 -0.74505805969E-08  0.93827000000E+00  0.93827000000E+00 0.  1.
     999902    2    1    2    0    0 -0.25425034805E-01 -0.77256485772E-02  0.71283642047E-02  0.10164176098E+01  0.10160451889E+01 0.  0.
     999903    2    3    3    0    0 -0.34804029288E-01 -0.94323585350E-01 -0.77540739933E-01  0.12807306771E+00  0.16789434607E-01 0.  0.
         14    1    1    2    0    0  0.25425034805E-01  0.77256485772E-02 -0.71283642047E-02  0.27512390245E-01  0.00000000000E+00 0.  1.
     999901    1    3    3    0    0  0.93789944836E-02  0.86597936773E-01  0.84669104138E-01  0.88834454205E+00  0.88000000000E+00 0. -1.
        -11    1    4    4    0    0 -0.32747589143E-02 -0.30950574899E-01 -0.22530303011E-01  0.38425744070E-01  0.51100000000E-03 0. -1.
         11    1    4    4    0    0 -0.31529270374E-01 -0.63373010451E-01 -0.55010436922E-01  0.89647323637E-01  0.51100000000E-03 0.  1.
</event>
<event>
 8    1  0.1093753E+005  0.1043930E+01  0.7957747E-01            NaN
         13   -1    0    0    0    0  0.00000000000E+00  0.00000000000E+00  0.74505805969E-08  0.10566000000E+00  0.10566000000E+00 0.  1.
     999900   -1    0    0    0    0 -0.00000000000E+00 -0.00000000000E+00 -0.74505805969E-08  0.93827000000E+00  0.93827000000E+00 0. -1.
     999902    2    1    2    0    0  0.17412521448E-01  0.72291492824E-02  0.20609861789E-01  0.10159975295E+01  0.10156134881E+01 0.  0.
     999903    2    3    3    0    0  0.37009869041E-01 -0.88629024468E-02  0.12243398262E+00  0.12976327060E+00  0.20003620920E-01 0.  0.
         14    1    1    2    0    0 -0.17412521448E-01 -0.72291492824E-02 -0.20609861789E-01  0.27932470451E-01  0.00000000000E+00 0. -1.
     999901    1    3    3    0    0 -0.19597347593E-01  0.16092051729E-01 -0.10182412083E+00  0.88623425895E+00  0.88000000000E+00 0. -1.
        -11    1    4    4    0    0  0.11453087049E-01 -0.39443461958E-02  0.71939481186E-01  0.72953965925E-01  0.51100000000E-03 0. -1.
         11    1    4    4    0    0  0.25556781991E-01 -0.49185562510E-02  0.50494501431E-01  0.56809304670E-01  0.51100000000E-03 0.  1.
</event>
<event>
 8    1  0.1093753E+005  0.1043930E+01  0.7957747E-01            NaN
         13   -1    0    0    0    0  0.00000000000E+00  0.00000000000E+00  0.74505805969E-08  0.10566000000E+00  0.10566000000E+00 0. -1.
     999900   -1    0    0    0    0 -0.00000000000E+00 -0.00000000000E+00 -0.74505805969E-08  0.93827000000E+00  0.93827000000E+00 0. -1.
     999902    2    1    2    0    0 -0.17032776714E-01  0.82843085748E-02  0.14042409762E-01  0.10203517362E+01  0.10200792769E+01 0.  0.
     999903    2    3    3    0    0  0.26041917639E-01 -0.29087077952E-01 -0.12039289484E+00  0.12831759957E+00  0.21135696143E-01 0.  0.
         14    1    1    2    0    0  0.17032776714E-01 -0.82843085748E-02 -0.14042409762E-01  0.23578263784E-01  0.00000000000E+00 0.  1.
     999901    1    3    3    0    0 -0.43074694353E-01  0.37371386526E-01  0.13443530461E+00  0.89203413665E+00  0.88000000000E+00 0.  1.
        -11    1    4    4    0    0  0.13389570373E-01 -0.64284999688E-02 -0.21933989940E-01  0.26494664412E-01  0.51100000000E-03 0. -1.
         11    1    4    4    0    0  0.12652347266E-01 -0.22658577983E-01 -0.98458904903E-01  0.10182293515E+00  0.51100000000E-03 0.  1.
</event>
<event>
 8    1  0.1093753E+005  0.1043930E+01  0.7957747E-01            NaN
         13   -1    0    0    0    0  0.00000000000E+00  0.00000000000E+00  0.74505805969E-08  0.10566000000E+00  0.10566000000E+00 0. -1.
     999900   -1    0    0    0    0 -0.00000000000E+00 -0.00000000000E+00 -0.74505805969E-08  0.93827000000E+00  0.93827000000E+00 0. -1.
     999902    2    1    2    0    0  0.61437758442E-02 -0.29065426777E-04  0.22890808226E-01  0.10202290311E+01  0.10199536950E+01 0.  0.
     999903    2    3    3    0    0  0.60930705060E-02  0.14287520107E-01 -0.12515935858E+00  0.12774719985E+00  0.20327894404E-01 0.  0.
         14    1    1    2    0    0 -0.61437758442E-02  0.29065426777E-04 -0.22890808226E-01  0.23700968918E-01  0.00000000000E+00 0.  1.
     999901    1    3    3    0    0  0.50705338205E-04 -0.14316585534E-01  0.14805016680E+00  0.89248183123E+00  0.88000000000E+00 0.  1.
        -11    1    4    4    0    0  0.22227040861E-02 -0.52076590157E-02 -0.29718447721E-01  0.30257352525E-01  0.51100000000E-03 0.  1.
         11    1    4    4    0    0  0.38703664199E-02  0.19495179123E-01 -0.95440910855E-01  0.97489847323E-01  0.51100000000E-03 0. -1.
</event>
<event>
 8    1  0.1093753E+005  0.1043930E+01  0.7957747E-01            NaN
         13   -1    0    0    0    0  0.00000000000E+00  0.00000000000E+00  0.74505805969E-08  0.10566000000E+00  0.10566000000E+00 0.  1.
     999900   -1    0    0    0    0 -0.00000000000E+00 -0.00000000000E+00 -0.74505805969E-08  0.93827000000E+00  0.93827000000E+00 0. -1.
     999902    2    1    2    0    0 -0.24566937215E-01  0.58779627980E-02 -0.42227668473E-03  0.10186661292E+01  0.10183527972E+01 0.  0.
     999903    2    3    3    0    0 -0.52727182468E-01  0.91577320684E-01 -0.75001690881E-01  0.13091646381E+00  0.18636132305E-01 0.  0.
         14    1    1    2    0    0  0.24566937215E-01 -0.58779627980E-02  0.42227668473E-03  0.25263870812E-01  0.00000000000E+00 0. -1.
     999901    1    3    3    0    0  0.28160245253E-01 -0.85699357886E-01  0.74579414196E-01  0.88774966538E+00  0.88000000000E+00 0.  1.
        -11    1    4    4    0    0 -0.44566443734E-01  0.82899946433E-01 -0.72316288576E-01  0.11869488506E+00  0.51100000000E-03 0. -1.
         11    1    4    4    0    0 -0.81607387341E-02  0.86773742504E-02 -0.26854023054E-02  0.12221578749E-01  0.51100000000E-03 0.  1.
</event>
<event>
 8    1  0.1093753E+005  0.1043930E+01  0.7957747E-01            NaN
         13   -1    0    0    0    0  0.00000000000E+00  0.00000000000E+00  0.74505805969E-08  0.10566000000E+00  0.10566000000E+00 0. -1.
     999900   -1    0    0    0    0 -0.00000000000E+00 -0.00000000000E+00 -0.74505805969E-08  0.93827000000E+00  0.93827000000E+00 0.  1.
     999902    2    1    2    0    0 -0.22101444556E-01  0.85398679098E-02  0.34961487026E-02  0.10199795042E+01  0.10196982704E+01 0.  0.
     999903    2    3    3    0    0 -0.93890547336E-01 -0.81920997022E-01  0.37501309833E-01  0.13178290748E+00  0.20830310436E-01 0.  0.
         14    1    1    2    0    0  0.22101444556E-01 -0.85398679098E-02 -0.34961487026E-02  0.23950495843E-01  0.00000000000E+00 0.  1.
     999901    1    3    3    0    0  0.71789102781E-01  0.90460864932E-01 -0.34005161131E-01  0.88819659668E+00  0.88000000000E+00 0.  1.
        -11    1    4    4    0    0 -0.42205505427E-01 -0.38621304807E-01  0.27977808618E-01  0.63686174084E-01  0.51100000000E-03 0. -1.
         11    1    4    4    0    0 -0.51685041909E-01 -0.43299692215E-01  0.95235012158E-02  0.68096733398E-01  0.51100000000E-03 0.  1.
</event>
<event>
 8    1  0.1093753E+005  0.1043930E+01  0.7957747E-01            NaN
         13   -1    0    0    0    0  0.00000000000E+00  0.00000000000E+00  0.74505805969E-08  0.10566000000E+00  0.10566000000E+00 0. -1.
     999900   -1    0    0    0    0 -0.00000000000E+00 -0.00000000000E+00 -0.74505805969E-08  0.93827000000E+00  0.93827000000E+00 0. -1.
     999902    2    1    2    0    0  0.16651968018E-01  0.92165868104E-02  0.12329272200E-01  0.10212530411E+01  0.10210012387E+01 0.  0.
     999903    2    3    3    0    0 -0.80654249118E-01 -0.89586284654E-01 -0.41078417396E-01  0.12879414088E+00  0.19227169577E-01 0.  0.
         14    1    1    2    0    0 -0.16651968018E-01 -0.92165868104E-02 -0.12329272200E-01  0.22676958885E-01  0.00000000000E+00 0.  1.
     999901    1    3    3    0    0  0.97306217136E-01  0.98802871465E-01  0.53407689596E-01  0.89245890024E+00  0.88000000000E+00 0.  1.
        -11    1    4    4    0    0 -0.34799657299E-01 -0.31768440224E-01 -0.24697346961E-01  0.53202161707E-01  0.51100000000E-03 0. -1.
         11    1    4    4    0    0 -0.45854591818E-01 -0.57817844430E-01 -0.16381070435E-01  0.75591979171E-01  0.51100000000E-03 0.  1.
</event>
<event>
 8    1  0.1093753E+005  0.1043930E+01  0.7957747E-01            NaN
         13   -1    0    0    0    0  0.00000000000E+00  0.00000000000E+00  0.74505805969E-08  0.10566000000E+00  0.10566000000E+00 0.  1.
     999900   -1    0    0    0    0 -0.00000000000E+00 -0.00000000000E+00 -0.74505805969E-08  0.93827000000E+00  0.93827000000E+00 0. -1.
     999902    2    1    2    0    0 -0.23502617087E-02 -0.77186792111E-02  0.20570663501E-01  0.10218335311E+01  0.10215945925E+01 0.  0.
     999903    2    3    3    0    0  0.10307586713E+00  0.78274793717E-01  0.10927070319E-01  0.13132662780E+00  0.19383100558E-01 0.  0.
         14    1    1    2    0    0  0.23502617087E-02  0.77186792111E-02 -0.20570663501E-01  0.22096468852E-01  0.00000000000E+00 0. -1.
     999901    1    3    3    0    0 -0.10542612884E+00 -0.85993472928E-01  0.96435931822E-02  0.89050690335E+00  0.88000000000E+00 0.  1.
        -11    1    4    4    0    0  0.47729773913E-01  0.24411327458E-01  0.57912101856E-02  0.53924423618E-01  0.51100000000E-03 0.  1.
         11    1    4    4    0    0  0.55346093213E-01  0.53863466259E-01  0.51358601334E-02  0.77402204178E-01  0.51100000000E-03 0. -1.
</event>
<event>
 8    1  0.1093753E+005  0.1043930E+01  0.7957747E-01            NaN
         13   -1    0    0    0    0  0.00000000000E+00  0.00000000000E+00  0.74505805969E-08  0.10566000000E+00  0.10566000000E+00 0. -1.
     999900   -1    0    0    0    0 -0.00000000000E+00 -0.00000000000E+00 -0.74505805969E-08  0.93827000000E+00  0.93827000000E+00 0. -1.
     999902    2    1    2    0    0  0.10895102579E-01 -0.95067929261E-02  0.12662654525E-01  0.10247095632E+01  0.10245292888E+01 0.  0.
     999903    2    3    3    0    0 -0.11917190954E+00  0.35293256776E-01  0.44332366035E-01  0.13345906937E+00  0.19960123226E-01 0.  0.
         14    1    1    2    0    0 -0.10895102579E-01  0.95067929261E-02 -0.12662654525E-01  0.19220436821E-01  0.00000000000E+00 0.  1.
     999901    1    3    3    0    0  0.13006701212E+00 -0.44800049702E-01 -0.31669711509E-01  0.89125049381E+00  0.88000000000E+00 0. -1.
        -11    1    4    4    0    0 -0.69307519255E-01  0.10984679010E-01  0.28753446640E-01  0.75836780080E-01  0.51100000000E-03 0.  1.
         11    1    4    4    0    0 -0.49864390290E-01  0.24308577765E-01  0.15578919394E-01  0.57622289285E-01  0.51100000000E-03 0. -1.
</event>
<event>
 8    1  0.1093753E+005  0.1043930E+01  0.7957747E-01            NaN
         13   -1    0    0    0    0  0.00000000000E+00  0.00000000000E+00  0.74505805969E-08  0.10566000000E+00  0.10566000000E+00 0.  1.
     999900   -1    0    0    0    0 -0.00000000000E+00 -0.00000000000E+00 -0.74505805969E-08  0.93827000000E+00  0.93827000000E+00 0.  1.
     999902    2    1    2    0    0 -0.81117732631E-02 -0.25913412561E-02 -0.22433008077E-01  0.10199350887E+01  0.10196527985E+01 0.  0.
     999903    2    3    3    0    0  0.75269912204E-01 -0.87569426830E-01  0.53025089392E-01  0.12871810900E+00  0.20560332725E-01 0.  0.
         14    1    1    2    0    0  0.81117732631E-02  0.25913412561E-02  0.22433008077E-01  0.23994911259E-01  0.00000000000E+00 0.  1.
     999901    1    3    3    0    0 -0.83381685467E-01  0.84978085574E-01 -0.75458097469E-01  0.89121697974E+00  0.88000000000E+00 0. -1.
        -11    1    4    4    0    0  0.49349421869E-01 -0.44565852014E-01  0.36498982693E-01  0.75854581030E-01  0.51100000000E-03 0.  1.
         11    1    4    4    0    0  0.25920490335E-01 -0.43003574816E-01  0.16526106699E-01  0.52863527973E-01  0.51100000000E-03 0. -1.
</event>
<event>
 8    1  0.1093753E+005  0.1043930E+01  0.7957747E-01            NaN
         13   -1    0    0    0    0  0.00000000000E+00  0.00000000000E+00  0.74505805969E-08  0.10566000000E+00  0.10566000000E+00 0. -1.
     999900   -1    0    0    0    0 -0.00000000000E+00 -0.00000000000E+00 -0.74505805969E-08  0.93827000000E+00  0.93827000000E+00 0.  1.
     999902    2    1    2    0    0  0.21398485855E-01 -0.60181666086E-02 -0.73172609040E-02  0.10205279524E+01  0.10202595972E+01 0.  0.
     999903    2    3    3    0    0  0.90688336398E-01  0.54318493295E-01  0.76089404569E-01  0.13182200113E+00  0.20311805006E-01 0.  0.
         14    1    1    2    0    0 -0.21398485855E-01  0.60181666086E-02  0.73172609040E-02  0.23402047632E-01  0.00000000000E+00 0. -1.
     999901    1    3    3    0    0 -0.69289850543E-01 -0.60336659903E-01 -0.83406665473E-01  0.88870595124E+00  0.88000000000E+00 0.  1.
        -11    1    4    4    0    0  0.86083372311E-01  0.48306443824E-01  0.64323698961E-01  0.11782045184E+00  0.51100000000E-03 0.  1.
         11    1    4    4    0    0  0.46049640867E-02  0.60120494704E-02  0.11765705607E-01  0.14001549290E-01  0.51100000000E-03 0. -1.
</event>
<event>
 8    1  0.1093753E+005  0.1043930E+01  0.7957747E-01            NaN
         13   -1    0    0    0    0  0.00000000000E+00  0.00000000000E+00  0.74505805969E-08  0.10566000000E+00  0.10566000000E+00 0.  1.
     999900   -1    0    0    0    0 -0.00000000000E+00 -0.00000000000E+00 -0.74505805969E-08  0.93827000000E+00  0.93827000000E+00 0.  1.
     999902    2    1    2    0    0  0.60744926503E-02  0.21296896280E-01 -0.27829596628E-02  0.10216095583E+01  0.10213656973E+01 0.  0.
     999903    2    3    3    0    0 -0.37394888418E-01 -0.10801838679E+00  0.56901309850E-01  0.12909947908E+00  0.19041188795E-01 0.  0.
         14    1    1    2    0    0 -0.60744926503E-02 -0.21296896280E-01  0.27829596628E-02  0.22320441676E-01  0.00000000000E+00 0. -1.
     999901    1    3    3    0    0  0.43469381068E-01  0.12931528307E+00 -0.59684269513E-01  0.89251007925E+00  0.88000000000E+00 0. -1.
        -11    1    4    4    0    0 -0.24305370189E-01 -0.41971782419E-01  0.25624600335E-01  0.54856748015E-01  0.51100000000E-03 0.  1.
         11    1    4    4    0    0 -0.13089518229E-01 -0.66046604374E-01  0.31276709515E-01  0.74242731064E-01  0.51100000000E-03 0. -1.
</event>
<event>
 8    1  0.1093753E+005  0.1043930E+01  0.7957747E-01            NaN
         13   -1    0    0    0    0  0.00000000000E+00  0.00000000000E+00  0.74505805969E-08  0.10566000000E+00  0.10566000000E+00 0.  1.
     999900   -1    0    0    0    0 -0.00000000000E+00 -0.00000000000E+00 -0.74505805969E-08  0.93827000000E+00  0.93827000000E+00 0.  1.
     999902    2    1    2    0    0 -0.20963469383E-01 -0.11701852581E-01 -0.49869967535E-03  0.10199164808E+01  0.10196337473E+01 0.  0.
     999903    2    3    3    0    0 -0.50374788004E-01  0.11482153934E+00  0.23554960176E-01  0.13005594516E+00  0.25260790937E-01 0.  0.
         14    1    1    2    0    0  0.20963469383E-01  0.11701852581E-01  0.49869967535E-03  0.24013519187E-01  0.00000000000E+00 0.  1.
     999901    1    3    3    0    0  0.29411318621E-01 -0.12652339192E+00 -0.24053659851E-01  0.88986053566E+00  0.88000000000E+00 0. -1.
        -11    1    4    4    0    0 -0.16941556897E-01  0.65356164296E-01  0.19178965452E-01  0.70189304017E-01  0.51100000000E-03 0.  1.
         11    1    4    4    0    0 -0.33433231107E-01  0.49465375044E-01  0.43759947244E-02  0.59866641139E-01  0.51100000000E-03 0. -1.
</event>
<event>
 8    1  0.1093753E+005  0.1043930E+01  0.7957747E-01            NaN
         13   -1    0    0    0    0  0.00000000000E+00  0.00000000000E+00  0.74505805969E-08  0.10566000000E+00  0.10566000000E+00 0. -1.
     999900   -1    0    0    0    0 -0.00000000000E+00 -0.00000000000E+00 -0.74505805969E-08  0.93827000000E+00  0.93827000000E+00 0. -1.
     999902    2    1    2    0    0  0.14534690016E-01 -0.10668383192E-01  0.14851788916E-01  0.10205709065E+01  0.10203035470E+01 0.  0.
     999903    2    3    3    0    0 -0.79170468973E-01 -0.10122683927E+00  0.14152473001E-01  0.13097438010E+00  0.20956135287E-01 0.  0.
         14    1    1    2    0    0 -0.14534690016E-01  0.10668383192E-01 -0.14851788916E-01  0.23359093471E-01  0.00000000000E+00 0. -1.
     999901    1    3    3    0    0  0.93705158989E-01  0.90558456073E-01  0.69931591433E-03  0.88959652643E+00  0.88000000000E+00 0. -1.
        -11    1    4    4    0    0 -0.43869547557E-01 -0.50941614004E-01  0.17408023141E-01  0.69446998718E-01  0.51100000000E-03 0. -1.
         11    1    4    4    0    0 -0.35300921417E-01 -0.50285225261E-01 -0.32555501401E-02  0.61527381385E-01  0.51100000000E-03 0.  1.
</event>
<event>
 8    1  0.1093753E+005  0.1043930E+01  0.7957747E-01            NaN
         13   -1    0    0    0    0  0.00000000000E+00  0.00000000000E+00  0.74505805969E-08  0.10566000000E+00  0.10566000000E+00 0. -1.
     999900   -1    0    0    0    0 -0.00000000000E+00 -0.00000000000E+00 -0.74505805969E-08  0.93827000000E+00  0.93827000000E+00 0. -1.
     999902    2    1    2    0    0  0.17231224941E-01 -0.15424005743E-01  0.81294452272E-02  0.10194166782E+01  0.10191219068E+01 0.  0.
     999903    2    3    3    0    0  0.11479527817E+00 -0.10826031815E-01 -0.59885556244E-01  0.13140433241E+00  0.19638224808E-01 0.  0.
         14    1    1    2    0    0 -0.17231224941E-01  0.15424005743E-01 -0.81294452272E-02  0.24513321803E-01  0.00000000000E+00 0.  1.
     999901    1    3    3    0    0 -0.97564053232E-01 -0.45979739284E-02  0.68015001471E-01  0.88801234579E+00  0.88000000000E+00 0.  1.
        -11    1    4    4    0    0  0.90819753742E-01 -0.76697542221E-02 -0.55814229787E-01  0.10687629376E+00  0.51100000000E-03 0. -1.
         11    1    4    4    0    0  0.23975524431E-01 -0.31562775927E-02 -0.40713264562E-02  0.24528038651E-01  0.51100000000E-03 0.  1.
</event>
<event>
 8    1  0.1093753E+005  0.1043930E+01  0.7957747E-01            NaN
         13   -1    0    0    0    0  0.00000000000E+00  0.00000000000E+00  0.74505805969E-08  0.10566000000E+00  0.10566000000E+00 0.  1.
     999900   -1    0    0    0    0 -0.00000000000E+00 -0.00000000000E+00 -0.74505805969E-08  0.93827000000E+00  0.93827000000E+00 0. -1.
     999902    2    1    2    0    0 -0.11936324057E-01 -0.13213501340E-01  0.15503987912E-01  0.10203197037E+01  0.10200464949E+01 0.  0.
     999903    2    3    3    0    0 -0.91360686843E-01  0.24636521502E-01  0.90738238696E-01  0.13273813218E+00  0.20790634444E-01 0.  0.
         14    1    1    2    0    0  0.11936324057E-01  0.13213501340E-01 -0.15503987912E-01  0.23610296289E-01  0.00000000000E+00 0. -1.
     999901    1    3    3    0    0  0.79424362786E-01 -0.37850022842E-01 -0.75234250784E-01  0.88758157153E+00  0.88000000000E+00 0. -1.
        -11    1    4    4    0    0 -0.57947729719E-01  0.21633126853E-01  0.47394291879E-01  0.77925679854E-01  0.51100000000E-03 0.  1.
         11    1    4    4    0    0 -0.33412957124E-01  0.30033946488E-02  0.43343946817E-01  0.54812452325E-01  0.51100000000E-03 0. -1.
</event>
<event>
 8    1  0.1093753E+005  0.1043930E+01  0.7957747E-01            NaN
         13   -1    0    0    0    0  0.00000000000E+00  0.00000000000E+00  0.74505805969E-08  0.10566000000E+00  0.10566000000E+00 0. -1.
     999900   -1    0    0    0    0 -0.00000000000E+00 -0.00000000000E+00 -0.74505805969E-08  0.93827000000E+00  0.93827000000E+00 0.  1.
     999902    2    1    2    0    0 -0.48195400731E-02 -0.89400486198E-02 -0.22065542642E-01  0.10196392485E+01  0.10193498695E+01 0.  0.
     999903    2    3    3    0    0 -0.62042783924E-01 -0.61635971945E-01 -0.98077375026E-01  0.13294360815E+00  0.20162623378E-01 0.  0.
         14    1    1    2    0    0  0.48195400731E-02  0.89400486198E-02  0.22065542642E-01  0.24290751489E-01  0.00000000000E+00 0. -1.
     999901    1    3    3    0    0  0.57223243850E-01  0.52695923325E-01  0.76011832384E-01  0.88669564036E+00  0.88000000000E+00 0. -1.
        -11    1    4    4    0    0 -0.24562544411E-01 -0.13949611461E-01 -0.39970353034E-01  0.48946915026E-01  0.51100000000E-03 0.  1.
         11    1    4    4    0    0 -0.37480239513E-01 -0.47686360484E-01 -0.58107021991E-01  0.83996693125E-01  0.51100000000E-03 0. -1.
</event>
<event>
 8    1  0.1093753E+005  0.1043930E+01  0.7957747E-01            NaN
         13   -1    0    0    0    0  0.00000000000E+00  0.00000000000E+00  0.74505805969E-08  0.10566000000E+00  0.10566000000E+00 0. -1.
     999900   -1    0    0    0    0 -0.00000000000E+00 -0.00000000000E+00 -0.74505805969E-08  0.93827000000E+00  0.93827000000E+00 0.  1.
     999902    2    1    2    0    0 -0.13557116135E-01  0.20197589514E-01 -0.26564784392E-02  0.10194597140E+01  0.10191659892E+01 0.  0.
     999903    2    3    3    0    0 -0.12588820619E+00 -0.14848511898E-02 -0.32634223149E-01  0.13154808144E+00  0.19744871943E-01 0.  0.
         14    1    1    2    0    0  0.13557116135E-01 -0.20197589514E-01  0.26564784392E-02  0.24470286017E-01  0.00000000000E+00 0. -1.
     999901    1    3    3    0    0  0.11233109006E+00  0.21682440704E-01  0.29977744710E-01  0.88791163254E+00  0.88000000000E+00 0. -1.
        -11    1    4    4    0    0 -0.10504343275E+00 -0.15728780247E-02 -0.19346808258E-01  0.10682301634E+00  0.51100000000E-03 0. -1.
         11    1    4    4    0    0 -0.20844773440E-01  0.88026834971E-04 -0.13287414891E-01  0.24725065095E-01  0.51100000000E-03 0.  1.
</event>
<event>
 8    1  0.1093753E+005  0.1043930E+01  0.7957747E-01            NaN
         13   -1    0    0    0    0  0.00000000000E+00  0.00000000000E+00  0.74505805969E-08  0.10566000000E+00  0.10566000000E+00 0.  1.
     999900   -1    0    0    0    0 -0.00000000000E+00 -0.00000000000E+00 -0.74505805969E-08  0.93827000000E+00  0.93827000000E+00 0.  1.
     999902    2    1    2    0    0  0.24094849353E-02 -0.17001939068E-01 -0.16392585987E-01  0.10201899826E+01  0.10199137278E+01 0.  0.
     999903    2    3    3    0    0  0.82366878016E-01  0.47823799201E-01  0.84037703264E-01  0.12851638536E+00  0.19562908090E-01 0.  0.
         14    1    1    2    0    0 -0.24094849353E-02  0.17001939068E-01  0.16392585987E-01  0.23740017377E-01  0.00000000000E+00 0.  1.
     999901    1    3    3    0    0 -0.79957393080E-01 -0.64825738268E-01 -0.10043028925E+00  0.89167359726E+00  0.88000000000E+00 0.  1.
        -11    1    4    4    0    0  0.44733824043E-01  0.29228235880E-01  0.34609633572E-01  0.63667045189E-01  0.51100000000E-03 0.  1.
         11    1    4    4    0    0  0.37633053973E-01  0.18595563321E-01  0.49428069692E-01  0.64849340174E-01  0.51100000000E-03 0. -1.
</event>
<event>
 7    1  0.1093753E+005  0.1043930E+01  0.7957747E-01            NaN
         13   -1    0    0    0    0  0.00000000000E+00  0.00000000000E+00  0.74505805969E-08  0.10566000000E+00  0.10566000000E+00 0. -1.
     999900   -1    0    0    0    0 -0.00000000000E+00 -0.00000000000E+00 -0.74505805969E-08  0.93827000000E+00  0.93827000000E+00 0. -1.
     999903    2    1    2    0    0  0.54310335635E-01 -0.95290164394E-01  0.15363867247E-01  0.11223807853E+00  0.18207412449E-01 0.  0.
         14    1    1    2    0    0  0.34747920161E-01 -0.59841335298E-02 -0.21687638031E-01  0.41395427924E-01  0.00000000000E+00 0.  1.
     999901    1    1    2    0    0 -0.89058255796E-01  0.10127429792E+00  0.63237707838E-02  0.89029649355E+00  0.88000000000E+00 0.  1.
        -11    1    3    3    0    0  0.13189580444E-01 -0.35896798356E-01  0.11308462068E-01  0.39883425127E-01  0.51100000000E-03 0. -1.
         11    1    3    3    0    0  0.41120755191E-01 -0.59393366038E-01  0.40554051792E-02  0.72354653402E-01  0.51100000000E-03 0.  1.
</event>
<event>
 8    1  0.1093753E+005  0.1043930E+01  0.7957747E-01            NaN
         13   -1    0    0    0    0  0.00000000000E+00  0.00000000000E+00  0.74505805969E-08  0.10566000000E+00  0.10566000000E+00 0. -1.
     999900   -1    0    0    0    0 -0.00000000000E+00 -0.00000000000E+00 -0.74505805969E-08  0.93827000000E+00  0.93827000000E+00 0. -1.
     999902    2    1    2    0    0 -0.11780075088E-01 -0.19078011638E-01 -0.12256310407E-01  0.10183769602E+01  0.10180563222E+01 0.  0.
     999903    2    3    3    0    0  0.77499810439E-01 -0.74865229812E-01 -0.70187638625E-01  0.13021078745E+00  0.20433337929E-01 0.  0.
         14    1    1    2    0    0  0.11780075088E-01  0.19078011638E-01  0.12256310407E-01  0.25553039779E-01  0.00000000000E+00 0.  1.
     999901    1    3    3    0    0 -0.89279885527E-01  0.55787218174E-01  0.57931328218E-01  0.88816617277E+00  0.88000000000E+00 0.  1.
        -11    1    4    4    0    0  0.13768026625E-01 -0.24433513199E-01 -0.13566565592E-01  0.31158753944E-01  0.51100000000E-03 0. -1.
         11    1    4    4    0    0  0.63731783814E-01 -0.50431716613E-01 -0.56621073033E-01  0.99052033503E-01  0.51100000000E-03 0.  1.
</event>
<event>
 8    1  0.1093753E+005  0.1043930E+01  0.7957747E-01            NaN
         13   -1    0    0    0    0  0.00000000000E+00  0.00000000000E+00  0.74505805969E-08  0.10566000000E+00  0.10566000000E+00 0. -1.
     999900   -1    0    0    0    0 -0.00000000000E+00 -0.00000000000E+00 -0.74505805969E-08  0.93827000000E+00  0.93827000000E+00 0. -1.
     999902    2    1    2    0    0  0.83881556102E-02 -0.19757372372E-01 -0.87367690721E-02  0.10207557459E+01  0.10204926491E+01 0.  0.
     999903    2    3    3    0    0  0.54788459903E-01 -0.80828763306E-01  0.85923811674E-01  0.13236206711E+00  0.24530615181E-01 0.  0.
         14    1    1    2    0    0 -0.83881556102E-02  0.19757372372E-01  0.87367690721E-02  0.23174254064E-01  0.00000000000E+00 0.  1.
     999901    1    3    3    0    0 -0.46400304293E-01  0.61071390934E-01 -0.94660580746E-01  0.88839367883E+00  0.88000000000E+00 0. -1.
        -11    1    4    4    0    0  0.38777842399E-01 -0.56741090744E-01  0.44642782275E-01  0.81954326122E-01  0.51100000000E-03 0. -1.
         11    1    4    4    0    0  0.16010617504E-01 -0.24087672563E-01  0.41281029399E-01  0.50407740989E-01  0.51100000000E-03 0.  1.
</event>
<event>
 8    1  0.1093753E+005  0.1043930E+01  0.7957747E-01            NaN
         13   -1    0    0    0    0  0.00000000000E+00  0.00000000000E+00  0.74505805969E-08  0.10566000000E+00  0.10566000000E+00 0.  1.
     999900   -1    0    0    0    0 -0.00000000000E+00 -0.00000000000E+00 -0.74505805969E-08  0.93827000000E+00  0.93827000000E+00 0. -1.
     999902    2    1    2    0    0  0.11736741938E-02 -0.15365546481E-01  0.17461804142E-01  0.10206406863E+01  0.10203749401E+01 0.  0.
     999903    2    3    3    0    0 -0.77185487430E-01  0.10181253056E+00  0.90735752518E-03  0.12926819980E+00  0.19648239910E-01 0.  0.
         14    1    1    2    0    0 -0.11736741938E-02  0.15365546481E-01 -0.17461804142E-01  0.23289313722E-01  0.00000000000E+00 0. -1.
     999901    1    3    3    0    0  0.78359161624E-01 -0.11717807705E+00  0.16554446617E-01  0.89137248648E+00  0.88000000000E+00 0.  1.
        -11    1    4    4    0    0 -0.19628938084E-01  0.17917448371E-01  0.65266165937E-02  0.27371299049E-01  0.51100000000E-03 0.  1.
         11    1    4    4    0    0 -0.57556549346E-01  0.83895082193E-01 -0.56192590686E-02  0.10189690075E+00  0.51100000000E-03 0. -1.
</event>
<event>
 8    1  0.1093753E+005  0.1043930E+01  0.7957747E-01            NaN
         13   -1    0    0    0    0  0.00000000000E+00  0.00000000000E+00  0.74505805969E-08  0.10566000000E+00  0.10566000000E+00 0. -1.
     999900   -1    0    0    0    0 -0.00000000000E+00 -0.00000000000E+00 -0.74505805969E-08  0.93827000000E+00  0.93827000000E+00 0.  1.
     999902    2    1    2    0    0  0.11707958930E-01  0.92124898554E-02 -0.33558958777E-01  0.10072128380E+01  0.10065433677E+01 0.  0.
     999903    2    3    3    0    0  0.58528878172E-01  0.85300617270E-01  0.53787321956E-01  0.11838722272E+00  0.20509354275E-01 0.  0.
         14    1    1    2    0    0 -0.11707958930E-01 -0.92124898554E-02  0.33558958777E-01  0.36717162007E-01  0.00000000000E+00 0. -1.
     999901    1    3    3    0    0 -0.46820919242E-01 -0.76088127415E-01 -0.87346280733E-01  0.88882561528E+00  0.88000000000E+00 0.  1.
        -11    1    4    4    0    0  0.25042636250E-01  0.47171876848E-01  0.36844859625E-01  0.64885471390E-01  0.51100000000E-03 0.  1.
         11    1    4    4    0    0  0.33486241922E-01  0.38128740423E-01  0.16942462331E-01  0.53501751328E-01  0.51100000000E-03 0. -1.
</event>
<event>
 8    1  0.1093753E+005  0.1043930E+01  0.7957747E-01            NaN
         13   -1    0    0    0    0  0.00000000000E+00  0.00000000000E+00  0.74505805969E-08  0.10566000000E+00  0.10566000000E+00 0.  1.
     999900   -1    0    0    0    0 -0.00000000000E+00 -0.00000000000E+00 -0.74505805969E-08  0.93827000000E+00  0.93827000000E+00 0. -1.
     999902    2    1    2    0    0  0.18105318004E-01 -0.11952362948E-01 -0.94960467888E-02  0.10202480148E+01  0.10199731247E+01 0.  0.
     999903    2    3    3    0    0 -0.10259126802E+00 -0.74054215731E-03 -0.76095043584E-01  0.12944568137E+00  0.20981231898E-01 0.  0.
         14    1    1    2    0    0 -0.18105318004E-01  0.11952362948E-01  0.94960467888E-02  0.23681985235E-01  0.00000000000E+00 0.  1.
     999901    1    3    3    0    0  0.12069658602E+00 -0.11211820791E-01  0.66598996795E-01  0.89080233339E+00  0.88000000000E+00 0.  1.
        -11    1    4    4    0    0 -0.12465224319E-01  0.57210617777E-02 -0.55272420636E-02  0.14796076879E-01  0.51100000000E-03 0.  1.
         11    1    4    4    0    0 -0.90126043699E-01 -0.64616039350E-02 -0.70567801520E-01  0.11464960449E+00  0.51100000000E-03 0. -1.
</event>
<event>
 8    1  0.1093753E+005  0.1043930E+01  0.7957747E-01            NaN
         13   -1    0    0    0    0  0.00000000000E+00  0.00000000000E+00  0.74505805969E-08  0.10566000000E+00  0.10566000000E+00 0.  1.
     999900   -1    0    0    0    0 -0.00000000000E+00 -0.00000000000E+00 -0.74505805969E-08  0.93827000000E+00  0.93827000000E+00 0.  1.
     999902    2    1    2    0    0 -0.14845063440E-01  0.36743671131E-03  0.18776668084E-01  0.10199910321E+01  0.10197100722E+01 0.  0.
     999903    2    3    3    0    0 -0.45779634688E-01  0.12864560076E-01  0.12287018168E+00  0.13322805063E+00  0.19782822615E-01 0.  0.
         14    1    1    2    0    0  0.14845063440E-01 -0.36743671131E-03 -0.18776668084E-01  0.23938967869E-01  0.00000000000E+00 0. -1.
     999901    1    3    3    0    0  0.30934571248E-01 -0.12497123365E-01 -0.10409351359E+00  0.88676298150E+00  0.88000000000E+00 0.  1.
        -11    1    4    4    0    0 -0.18560716559E-01  0.25594036326E-02  0.25815998109E-01  0.31902627250E-01  0.51100000000E-03 0.  1.
         11    1    4    4    0    0 -0.27218918129E-01  0.10305156443E-01  0.97054183570E-01  0.10132542338E+00  0.51100000000E-03 0. -1.
</event>
<event>
 8    1  0.1093753E+005  0.1043930E+01  0.7957747E-01            NaN
         13   -1    0    0    0    0  0.00000000000E+00  0.00000000000E+00  0.74505805969E-08  0.10566000000E+00  0.10566000000E+00 0. -1.
     999900   -1    0    0    0    0 -0.00000000000E+00 -0.00000000000E+00 -0.74505805969E-08  0.93827000000E+00  0.93827000000E+00 0.  1.
     999902    2    1    2    0    0 -0.87792322962E-02  0.34145175291E-02  0.25143866690E-01  0.10170795273E+01  0.10167250450E+01 0.  0.
     999903    2    3    3    0    0 -0.68252374537E-02  0.49407802642E-01 -0.11295951638E+00  0.12512003007E+00  0.20185508548E-01 0.  0.
         14    1    1    2    0    0  0.87792322962E-02 -0.34145175291E-02 -0.25143866690E-01  0.26850472655E-01  0.00000000000E+00 0.  1.
     999901    1    3    3    0    0 -0.19539948425E-02 -0.45993285112E-01  0.13810338307E+00  0.89195949728E+00  0.88000000000E+00 0. -1.
        -11    1    4    4    0    0 -0.61761353817E-02  0.33590063315E-01 -0.96088190058E-01  0.10197861732E+00  0.51100000000E-03 0.  1.
         11    1    4    4    0    0 -0.64910207199E-03  0.15817739327E-01 -0.16871326319E-01  0.23141412742E-01  0.51100000000E-03 0. -1.
</event>
<event>
 8    1  0.1093753E+005  0.1043930E+01  0.7957747E-01            NaN
         13   -1    0    0    0    0  0.00000000000E+00  0.00000000000E+00  0.74505805969E-08  0.10566000000E+00  0.10566000000E+00 0.  1.
     999900   -1    0    0    0    0 -0.00000000000E+00 -0.00000000000E+00 -0.74505805969E-08  0.93827000000E+00  0.93827000000E+00 0. -1.
     999902    2    1    2    0    0 -0.93236274179E-02  0.20835329931E-01 -0.54810700300E-02  0.10204548401E+01  0.10201847860E+01 0.  0.
     999903    2    3    3    0    0  0.27223717844E-01 -0.12165510200E+00  0.20328957163E-01  0.12787129272E+00  0.19917488452E-01 0.  0.
         14    1    1    2    0    0  0.93236274179E-02 -0.20835329931E-01  0.54810700300E-02  0.23475159855E-01  0.00000000000E+00 0.  1.
     999901    1    3    3    0    0 -0.36547345262E-01  0.14249043193E+00 -0.25810027192E-01  0.89258354743E+00  0.88000000000E+00 0.  1.
        -11    1    4    4    0    0  0.26687745310E-01 -0.10382833085E+00  0.11083449712E-01  0.10777598069E+00  0.51100000000E-03 0. -1.
         11    1    4    4    0    0  0.53597253327E-03 -0.17826771152E-01  0.92455074503E-02  0.20095312022E-01  0.51100000000E-03 0.  1.
</event>
<event>
 8    1  0.1093753E+005  0.1043930E+01  0.7957747E-01            NaN
         13   -1    0    0    0    0  0.00000000000E+00  0.00000000000E+00  0.74505805969E-08  0.10566000000E+00  0.10566000000E+00 0.  1.
     999900   -1    0    0    0    0 -0.00000000000E+00 -0.00000000000E+00 -0.74505805969E-08  0.93827000000E+00  0.93827000000E+00 0.  1.
     999902    2    1    2    0    0 -0.21815584161E-01 -0.72795402262E-02 -0.61644336656E-02  0.10201200932E+01  0.10198421902E+01 0.  0.
     999903    2    3    3    0    0  0.79893031308E-01 -0.69311163148E-01 -0.72431460901E-01  0.12962366785E+00  0.19210542708E-01 0.  0.
         14    1    1    2    0    0  0.21815584161E-01  0.72795402262E-02  0.61644336656E-02  0.23809906774E-01  0.00000000000E+00 0.  1.
     999901    1    3    3    0    0 -0.10170861547E+00  0.62031622921E-01  0.66267027235E-01  0.89049642537E+00  0.88000000000E+00 0. -1.
        -11    1    4    4    0    0  0.34793774983E-01 -0.41244108557E-01 -0.42181179721E-01  0.68492308413E-01  0.51100000000E-03 0. -1.
         11    1    4    4    0    0  0.45099256325E-01 -0.28067054591E-01 -0.30250281180E-01  0.61131359440E-01  0.51100000000E-03 0.  1.
</event>
<event>
 8    1  0.1093753E+005  0.1043930E+01  0.7957747E-01            NaN
         13   -1    0    0    0    0  0.00000000000E+00  0.00000000000E+00  0.74505805969E-08  0.10566000000E+00  0.10566000000E+00 0.  1.
     999900   -1    0    0    0    0 -0.00000000000E+00 -0.00000000000E+00 -0.74505805969E-08  0.93827000000E+00  0.93827000000E+00 0. -1.
     999902    2    1    2    0    0  0.74452393444E-02  0.16468846678E-01 -0.15217179049E-01  0.10203033828E+01  0.10200297917E+01 0.  0.
     999903    2    3    3    0    0 -0.11672264861E+00 -0.28955725096E-01  0.43602820604E-01  0.12848453999E+00  0.12019165408E-01 0.  0.
         14    1    1    2    0    0 -0.74452393444E-02 -0.16468846678E-01  0.15217179049E-01  0.23626617151E-01  0.00000000000E+00 0.  1.
     999901    1    3    3    0    0  0.12416788796E+00  0.45424571774E-01 -0.58819999653E-01  0.89181884286E+00  0.88000000000E+00 0. -1.
        -11    1    4    4    0    0 -0.19986777618E-01 -0.12508745890E-02  0.45274893526E-02  0.20537654385E-01  0.51100000000E-03 0. -1.
         11    1    4    4    0    0 -0.96735870993E-01 -0.27704850507E-01  0.39075331251E-01  0.10794688560E+00  0.51100000000E-03 0.  1.
</event>
<event>
 8    1  0.1093753E+005  0.1043930E+01  0.7957747E-01            NaN
         13   -1    0    0    0    0  0.00000000000E+00  0.00000000000E+00  0.74505805969E-08  0.10566000000E+00  0.10566000000E+00 0. -1.
     999900   -1    0    0    0    0 -0.00000000000E+00 -0.00000000000E+00 -0.74505805969E-08  0.93827000000E+00  0.93827000000E+00 0.  1.
     999902    2    1    2    0    0 -0.12809355379E-01 -0.19445887261E-01  0.74212689805E-02  0.10194903325E+01  0.10191973512E+01 0.  0.
     999903    2    3    3    0    0 -0.15147727414E-01  0.12316092804E+00 -0.21099152029E-01  0.12755110461E+00  0.20640790399E-01 0.  0.
         14    1    1    2    0    0  0.12809355379E-01  0.19445887261E-01 -0.74212689805E-02  0.24439667548E-01  0.00000000000E+00 0.  1.
     999901    1    3    3    0    0  0.23383720352E-02 -0.14260681530E+00  0.28520421009E-01  0.89193922785E+00  0.88000000000E+00 0.  1.
        -11    1    4    4    0    0 -0.17023556612E-01  0.78621892216E-01 -0.67986004633E-02  0.80732183821E-01  0.51100000000E-03 0.  1.
         11    1    4    4    0    0  0.18758291976E-02  0.44539035825E-01 -0.14300551566E-01  0.46818920785E-01  0.51100000000E-03 0. -1.
</event>
<event>
 8    1  0.1093753E+005  0.1043930E+01  0.7957747E-01            NaN
         13   -1    0    0    0    0  0.00000000000E+00  0.00000000000E+00  0.74505805969E-08  0.10566000000E+00  0.10566000000E+00 0.  1.
     999900   -1    0    0    0    0 -0.00000000000E+00 -0.00000000000E+00 -0.74505805969E-08  0.93827000000E+00  0.93827000000E+00 0. -1.
     999902    2    1    2    0    0  0.10245427646E-02  0.18718863844E-01 -0.13123110773E-01  0.10210463467E+01  0.10207898807E+01 0.  0.
     999903    2    3    3    0    0 -0.75315777107E-01 -0.84785812904E-01  0.57837075516E-01  0.12887124586E+00  0.20039220378E-01 0.  0.
         14    1    1    2    0    0 -0.10245427646E-02 -0.18718863844E-01  0.13123110773E-01  0.22883653289E-01  0.00000000000E+00 0. -1.
     999901    1    3    3    0    0  0.76340319872E-01  0.10350467675E+00 -0.70960186289E-01  0.89217510085E+00  0.88000000000E+00 0. -1.
        -11    1    4    4    0    0 -0.52255732431E-01 -0.56116467032E-01  0.49094258048E-01  0.91050682251E-01  0.51100000000E-03 0.  1.
         11    1    4    4    0    0 -0.23060044677E-01 -0.28669345871E-01  0.87428174679E-02  0.37820563606E-01  0.51100000000E-03 0. -1.
</event>
<event>
 8    1  0.1093753E+005  0.1043930E+01  0.7957747E-01            NaN
         13   -1    0    0    0    0  0.00000000000E+00  0.00000000000E+00  0.74505805969E-08  0.10566000000E+00  0.10566000000E+00 0. -1.
     999900   -1    0    0    0    0 -0.00000000000E+00 -0.00000000000E+00 -0.74505805969E-08  0.93827000000E+00  0.93827000000E+00 0. -1.
     999902    2    1    2    0    0 -0.17047566185E-02 -0.24082132602E-01 -0.67006571246E-03  0.10197783066E+01  0.10194922709E+01 0.  0.
     999903    2    3    3    0    0 -0.12920935127E-01  0.12461838766E+00 -0.15559066063E-01  0.12710853020E+00  0.14758075931E-01 0.  0.
         14    1    1    2    0    0  0.17047566185E-02  0.24082132602E-01  0.67006571246E-03  0.24151693395E-01  0.00000000000E+00 0. -1.
     999901    1    3    3    0    0  0.11216178509E-01 -0.14870052026E+00  0.14889000351E-01  0.89266977641E+00  0.88000000000E+00 0.  1.
        -11    1    4    4    0    0 -0.73347387451E-02  0.63407688344E-01 -0.54788061405E-03  0.63834901330E-01  0.51100000000E-03 0. -1.
         11    1    4    4    0    0 -0.55861963823E-02  0.61210699311E-01 -0.15011185449E-01  0.63273628865E-01  0.51100000000E-03 0.  1.
</event>
<event>
 8    1  0.1093753E+005  0.1043930E+01  0.7957747E-01            NaN
         13   -1    0    0    0    0  0.00000000000E+00  0.00000000000E+00  0.74505805969E-08  0.10566000000E+00  0.10566000000E+00 0.  1.
     999900   -1    0    0    0    0 -0.00000000000E+00 -0.00000000000E+00 -0.74505805969E-08  0.93827000000E+00  0.93827000000E+00 0. -1.
     999902    2    1    2    0    0  0.58896507323E-02 -0.22716118640E-01  0.11266974540E-02  0.10204357565E+01  0.10201652580E+01 0.  0.
     999903    2    3    3    0    0  0.42727444873E-01 -0.92873553207E-01  0.82932682715E-01  0.13309630174E+00  0.19638336061E-01 0.  0.
         14    1    1    2    0    0 -0.58896507323E-02  0.22716118640E-01 -0.11266974540E-02  0.23494243529E-01  0.00000000000E+00 0.  1.
     999901    1    3    3    0    0 -0.36837794141E-01  0.70157434567E-01 -0.81805985261E-01  0.88733945473E+00  0.88000000000E+00 0. -1.
        -11    1    4    4    0    0  0.36421551143E-01 -0.71523655239E-01  0.54665952454E-01  0.97112255277E-01  0.51100000000E-03 0.  1.
         11    1    4    4    0    0  0.63058937303E-02 -0.21349897968E-01  0.28266730262E-01  0.35984046461E-01  0.51100000000E-03 0. -1.
</event>
<event>
 8    1  0.1093753E+005  0.1043930E+01  0.7957747E-01            NaN
         13   -1    0    0    0    0  0.00000000000E+00  0.00000000000E+00  0.74505805969E-08  0.10566000000E+00  0.10566000000E+00 0. -1.
     999900   -1    0    0    0    0 -0.00000000000E+00 -0.00000000000E+00 -0.74505805969E-08  0.93827000000E+00  0.93827000000E+00 0. -1.
     999902    2    1    2    0    0 -0.19807723354E-01  0.56670490994E-02  0.14532310070E-01  0.10187179119E+01  0.10184058791E+01 0.  0.
     999903    2    3    3    0    0 -0.76975575850E-01 -0.87917441756E-01 -0.51937064652E-01  0.12942358602E+00  0.19957206478E-01 0.  0.
         14    1    1    2    0    0  0.19807723354E-01 -0.56670490994E-02 -0.14532310070E-01  0.25212088092E-01  0.00000000000E+00 0.  1.
     999901    1    3    3    0    0  0.57167852496E-01  0.93584490855E-01  0.66469374722E-01  0.88929432589E+00  0.88000000000E+00 0. -1.
        -11    1    4    4    0    0 -0.30814789397E-01 -0.42388766145E-01 -0.32777874762E-01  0.61814310121E-01  0.51100000000E-03 0.  1.
         11    1    4    4    0    0 -0.46160786453E-01 -0.45528675611E-01 -0.19159189891E-01  0.67609275895E-01  0.51100000000E-03 0. -1.
</event>
<event>
 8    1  0.1093753E+005  0.1043930E+01  0.7957747E-01            NaN
         13   -1    0    0    0    0  0.00000000000E+00  0.00000000000E+00  0.74505805969E-08  0.10566000000E+00  0.10566000000E+00 0.  1.
     999900   -1    0    0    0    0 -0.00000000000E+00 -0.00000000000E+00 -0.74505805969E-08  0.93827000000E+00  0.93827000000E+00 0. -1.
     999902    2    1    2    0    0  0.22029658164E-01 -0.59736083664E-04 -0.93056960390E-02  0.10200154566E+01  0.10197350765E+01 0.  0.
     999903    2    3    3    0    0  0.62056905513E-01  0.99357171692E-01  0.55466580765E-01  0.13115025314E+00  0.20023491911E-01 0.  0.
         14    1    1    2    0    0 -0.22029658164E-01  0.59736083664E-04  0.93056960390E-02  0.23914543399E-01  0.00000000000E+00 0.  1.
     999901    1    3    3    0    0 -0.40027247349E-01 -0.99416907776E-01 -0.64772276804E-01  0.88886520346E+00  0.88000000000E+00 0. -1.
        -11    1    4    4    0    0  0.41027266575E-01  0.47066018132E-01  0.27442846735E-01  0.68204234644E-01  0.51100000000E-03 0.  1.
         11    1    4    4    0    0  0.21029638938E-01  0.52291153560E-01  0.28023734031E-01  0.62946018496E-01  0.51100000000E-03 0. -1.
</event>
<event>
 8    1  0.1093753E+005  0.1043930E+01  0.7957747E-01            NaN
         13   -1    0    0    0    0  0.00000000000E+00  0.00000000000E+00  0.74505805969E-08  0.10566000000E+00  0.10566000000E+00 0. -1.
     999900   -1    0    0    0    0 -0.00000000000E+00 -0.00000000000E+00 -0.74505805969E-08  0.93827000000E+00  0.93827000000E+00 0.  1.
     999902    2    1    2    0    0  0.78072418264E-02 -0.37989368339E-02 -0.22186445694E-01  0.10201051533E+01  0.10198268973E+01 0.  0.
     999903    2    3    3    0    0  0.11731133096E-01 -0.52045975742E-01  0.11486633288E+00  0.12818215341E+00  0.19748087204E-01 0.  0.
         14    1    1    2    0    0 -0.78072418264E-02  0.37989368339E-02  0.22186445694E-01  0.23824846663E-01  0.00000000000E+00 0. -1.
     999901    1    3    3    0    0 -0.39238912693E-02  0.48247038908E-01 -0.13705277857E+00  0.89192299993E+00  0.88000000000E+00 0.  1.
        -11    1    4    4    0    0  0.10942152523E-01 -0.21558920748E-01  0.68864102011E-01  0.72986597622E-01  0.51100000000E-03 0. -1.
         11    1    4    4    0    0  0.78898057267E-03 -0.30487054994E-01  0.46002230870E-01  0.55195555786E-01  0.51100000000E-03 0.  1.
</event>
<event>
 8    1  0.1093753E+005  0.1043930E+01  0.7957747E-01            NaN
         13   -1    0    0    0    0  0.00000000000E+00  0.00000000000E+00  0.74505805969E-08  0.10566000000E+00  0.10566000000E+00 0.  1.
     999900   -1    0    0    0    0 -0.00000000000E+00 -0.00000000000E+00 -0.74505805969E-08  0.93827000000E+00  0.93827000000E+00 0.  1.
     999902    2    1    2    0    0  0.17989226091E-01  0.11421569181E-01  0.10594398552E-01  0.10201328199E+01  0.10198552174E+01 0.  0.
     999903    2    3    3    0    0 -0.99369863341E-01 -0.69894852362E-01  0.35225156126E-01  0.12828519254E+00  0.21368642315E-01 0.  0.
         14    1    1    2    0    0 -0.17989226091E-01 -0.11421569181E-01 -0.10594398552E-01  0.23797180055E-01  0.00000000000E+00 0. -1.
     999901    1    3    3    0    0  0.11735908943E+00  0.81316421544E-01 -0.24630757574E-01  0.89184762740E+00  0.88000000000E+00 0. -1.
        -11    1    4    4    0    0 -0.46600996551E-01 -0.20450424028E-01  0.17621355368E-01  0.53857645775E-01  0.51100000000E-03 0.  1.
         11    1    4    4    0    0 -0.52768866790E-01 -0.49444428334E-01  0.17603800758E-01  0.74427546767E-01  0.51100000000E-03 0. -1.
</event>
<event>
 8    1  0.1093753E+005  0.1043930E+01  0.7957747E-01            NaN
         13   -1    0    0    0    0  0.00000000000E+00  0.00000000000E+00  0.74505805969E-08  0.10566000000E+00  0.10566000000E+00 0. -1.
     999900   -1    0    0    0    0 -0.00000000000E+00 -0.00000000000E+00 -0.74505805969E-08  0.93827000000E+00  0.93827000000E+00 0. -1.
     999902    2    1    2    0    0  0.13176253976E-01  0.15321432377E-01 -0.12642975340E-01  0.10200929535E+01  0.10198144091E+01 0.  0.
     999903    2    3    3    0    0 -0.76074300385E-01  0.99854973400E-01 -0.31959871636E-01  0.13133836227E+00  0.21679878135E-01 0.  0.
         14    1    1    2    0    0 -0.13176253976E-01 -0.15321432377E-01  0.12642975340E-01  0.23837046469E-01  0.00000000000E+00 0. -1.
     999901    1    3    3    0    0  0.89250554361E-01 -0.84533541022E-01  0.19316896295E-01  0.88875459126E+00  0.88000000000E+00 0.  1.
        -11    1    4    4    0    0 -0.39479644689E-01  0.53015417722E-01 -0.27926435717E-01  0.71759485742E-01  0.51100000000E-03 0.  1.
         11    1    4    4    0    0 -0.36594655696E-01  0.46839555678E-01 -0.40334359187E-02  0.59578876524E-01  0.51100000000E-03 0. -1.
</event>
<event>
 8    1  0.1093753E+005  0.1043930E+01  0.7957747E-01            NaN
         13   -1    0    0    0    0  0.00000000000E+00  0.00000000000E+00  0.74505805969E-08  0.10566000000E+00  0.10566000000E+00 0.  1.
     999900   -1    0    0    0    0 -0.00000000000E+00 -0.00000000000E+00 -0.74505805969E-08  0.93827000000E+00  0.93827000000E+00 0. -1.
     999902    2    1    2    0    0 -0.63928317171E-03  0.24193528277E-01  0.12280720154E-02  0.10196968893E+01  0.10194088985E+01 0.  0.
     999903    2    3    3    0    0 -0.11218044954E+00 -0.59805944799E-01  0.36054741782E-02  0.12868454633E+00  0.19634376194E-01 0.  0.
         14    1    1    2    0    0  0.63928317171E-03 -0.24193528277E-01 -0.12280720154E-02  0.24233110703E-01  0.00000000000E+00 0.  1.
     999901    1    3    3    0    0  0.11154116637E+00  0.83999473075E-01 -0.23774021629E-02  0.89101234296E+00  0.88000000000E+00 0. -1.
        -11    1    4    4    0    0 -0.21356479282E-01 -0.18255916364E-01 -0.45806620511E-02  0.28471411546E-01  0.51100000000E-03 0.  1.
         11    1    4    4    0    0 -0.90823970259E-01 -0.41550028435E-01  0.81861362293E-02  0.10021313479E+00  0.51100000000E-03 0. -1.
</event>
<event>
 8    1  0.1093753E+005  0.1043930E+01  0.7957747E-01            NaN
         13   -1    0    0    0    0  0.00000000000E+00  0.00000000000E+00  0.74505805969E-08  0.10566000000E+00  0.10566000000E+00 0.  1.
     999900   -1    0    0    0    0 -0.00000000000E+00 -0.00000000000E+00 -0.74505805969E-08  0.93827000000E+00  0.93827000000E+00 0. -1.
     999902    2    1    2    0    0  0.22576760459E-03  0.26709294324E-01  0.47170767905E-02  0.10168064275E+01  0.10164445989E+01 0.  0.
     999903    2    3    3    0    0  0.52843145229E-01 -0.11078570594E+00 -0.62151489822E-02  0.12450996490E+00  0.19955767182E-01 0.  0.
         14    1    1    2    0    0 -0.22576760459E-03 -0.26709294324E-01 -0.47170767905E-02  0.27123572547E-01  0.00000000000E+00 0.  1.
     999901    1    3    3    0    0 -0.52617377625E-01  0.13749500026E+00  0.10932225773E-01  0.89229646255E+00  0.88000000000E+00 0.  1.
        -11    1    4    4    0    0  0.19638833249E-01 -0.63907142002E-01 -0.16326988342E-02  0.66878497268E-01  0.51100000000E-03 0.  1.
         11    1    4    4    0    0  0.33204311980E-01 -0.46878563938E-01 -0.45824501481E-02  0.57631467631E-01  0.51100000000E-03 0. -1.
</event>
<event>
 8    1  0.1093753E+005  0.1043930E+01  0.7957747E-01            NaN
         13   -1    0    0    0    0  0.00000000000E+00  0.00000000000E+00  0.74505805969E-08  0.10566000000E+00  0.10566000000E+00 0. -1.
     999900   -1    0    0    0    0 -0.00000000000E+00 -0.00000000000E+00 -0.74505805969E-08  0.93827000000E+00  0.93827000000E+00 0. -1.
     999902    2    1    2    0    0  0.15513911021E-01 -0.16514225485E-01 -0.82533215241E-02  0.10198153075E+01  0.10195301580E+01 0.  0.
     999903    2    3    3    0    0 -0.11824009527E-01 -0.10450687908E+00  0.75306020683E-01  0.13106774341E+00  0.21124905564E-01 0.  0.
         14    1    1    2    0    0 -0.15513911021E-01  0.16514225485E-01  0.82533215241E-02  0.24114692507E-01  0.00000000000E+00 0.  1.
     999901    1    3    3    0    0  0.27337920548E-01  0.87992653599E-01 -0.83559342207E-01  0.88874756408E+00  0.88000000000E+00 0. -1.
        -11    1    4    4    0    0  0.17830006328E-02 -0.60663276208E-01  0.35548675577E-01  0.70336204246E-01  0.51100000000E-03 0.  1.
         11    1    4    4    0    0 -0.13607010160E-01 -0.43843602877E-01  0.39757345106E-01  0.60731539167E-01  0.51100000000E-03 0. -1.
</event>
<event>
 8    1  0.1093753E+005  0.1043930E+01  0.7957747E-01            NaN
         13   -1    0    0    0    0  0.00000000000E+00  0.00000000000E+00  0.74505805969E-08  0.10566000000E+00  0.10566000000E+00 0.  1.
     999900   -1    0    0    0    0 -0.00000000000E+00 -0.00000000000E+00 -0.74505805969E-08  0.93827000000E+00  0.93827000000E+00 0. -1.
     999902    2    1    2    0    0 -0.23936661470E-01  0.64967465304E-02 -0.46864733379E-02  0.10186884765E+01  0.10183757055E+01 0.  0.
     999903    2    3    3    0    0 -0.43420354075E-01 -0.11638295539E+00  0.30017938116E-01  0.12925976567E+00  0.19408528022E-01 0.  0.
         14    1    1    2    0    0  0.23936661470E-01 -0.64967465304E-02  0.46864733379E-02  0.25241523530E-01  0.00000000000E+00 0. -1.
     999901    1    3    3    0    0  0.19483692605E-01  0.12287970192E+00 -0.34704411454E-01  0.88942871080E+00  0.88000000000E+00 0. -1.
        -11    1    4    4    0    0 -0.14525298063E-01 -0.51025516627E-01  0.39875852551E-02  0.53204789146E-01  0.51100000000E-03 0.  1.
         11    1    4    4    0    0 -0.28895056012E-01 -0.65357438759E-01  0.26030352861E-01  0.76054976524E-01  0.51100000000E-03 0. -1.
</event>
<event>
 8    1  0.1093753E+005  0.1043930E+01  0.7957747E-01            NaN
         13   -1    0    0    0    0  0.00000000000E+00  0.00000000000E+00  0.74505805969E-08  0.10566000000E+00  0.10566000000E+00 0. -1.
     999900   -1    0    0    0    0 -0.00000000000E+00 -0.00000000000E+00 -0.74505805969E-08  0.93827000000E+00  0.93827000000E+00 0. -1.
     999902    2    1    2    0    0  0.80067504707E-02 -0.16461707692E-01  0.13841424454E-01  0.10209804705E+01  0.10207225089E+01 0.  0.
     999903    2    3    3    0    0  0.37688578035E-01  0.11245326198E+00 -0.46825892207E-01  0.12902721859E+00  0.19727998139E-01 0.  0.
         14    1    1    2    0    0 -0.80067504707E-02  0.16461707692E-01 -0.13841424454E-01  0.22949529498E-01  0.00000000000E+00 0. -1.
     999901    1    3    3    0    0 -0.29681827564E-01 -0.12891496967E+00  0.60667316661E-01  0.89195325192E+00  0.88000000000E+00 0. -1.
        -11    1    4    4    0    0  0.21535684247E-01  0.42386388208E-01 -0.11526254236E-01  0.48923483717E-01  0.51100000000E-03 0.  1.
         11    1    4    4    0    0  0.16152893788E-01  0.70066873773E-01 -0.35299637971E-01  0.80103734869E-01  0.51100000000E-03 0. -1.
</event>
<event>
 8    1  0.1093753E+005  0.1043930E+01  0.7957747E-01            NaN
         13   -1    0    0    0    0  0.00000000000E+00  0.00000000000E+00  0.74505805969E-08  0.10566000000E+00  0.10566000000E+00 0. -1.
     999900   -1    0    0    0    0 -0.00000000000E+00 -0.00000000000E+00 -0.74505805969E-08  0.93827000000E+00  0.93827000000E+00 0. -1.
     999902    2    1    2    0    0 -0.75383071218E-02 -0.48780486226E-02  0.21826470933E-01  0.10203288080E+01  0.10200558122E+01 0.  0.
     999903    2    3    3    0    0 -0.79017358399E-01 -0.43107074413E-03  0.10567456491E+00  0.13344689177E+00  0.19925624306E-01 0.  0.
         14    1    1    2    0    0  0.75383071218E-02  0.48780486226E-02 -0.21826470933E-01  0.23601192046E-01  0.00000000000E+00 0. -1.
     999901    1    3    3    0    0  0.71479051277E-01 -0.44469778785E-02 -0.83848093981E-01  0.88688191618E+00  0.88000000000E+00 0. -1.
        -11    1    4    4    0    0 -0.78038296974E-01 -0.32717250554E-03  0.96045388144E-01  0.12375403242E+00  0.51100000000E-03 0.  1.
         11    1    4    4    0    0 -0.97906142557E-03 -0.10389823859E-03  0.96291767690E-02  0.96928593494E-02  0.51100000000E-03 0. -1.
</event>
<event>
 8    1  0.1093753E+005  0.1043930E+01  0.7957747E-01            NaN
         13   -1    0    0    0    0  0.00000000000E+00  0.00000000000E+00  0.74505805969E-08  0.10566000000E+00  0.10566000000E+00 0. -1.
     999900   -1    0    0    0    0 -0.00000000000E+00 -0.00000000000E+00 -0.74505805969E-08  0.93827000000E+00  0.93827000000E+00 0. -1.
     999902    2    1    2    0    0  0.22023910137E-01  0.60612868451E-02 -0.64760777362E-02  0.10201869716E+01  0.10199106459E+01 0.  0.
     999903    2    3    3    0    0 -0.59655881400E-01  0.99616880957E-01  0.53613678734E-01  0.12943727813E+00  0.19930761792E-01 0.  0.
         14    1    1    2    0    0 -0.22023910137E-01 -0.60612868451E-02  0.64760777362E-02  0.23743028425E-01  0.00000000000E+00 0.  1.
     999901    1    3    3    0    0  0.81679791537E-01 -0.93555594112E-01 -0.60089756470E-01  0.89074969344E+00  0.88000000000E+00 0.  1.
        -11    1    4    4    0    0 -0.57619814349E-01  0.99035539386E-01  0.54741778055E-01  0.12698426852E+00  0.51100000000E-03 0. -1.
         11    1    4    4    0    0 -0.20360670507E-02  0.58134157139E-03 -0.11280993209E-02  0.24530096077E-02  0.51100000000E-03 0.  1.
</event>
<event>
 8    1  0.1093753E+005  0.1043930E+01  0.7957747E-01            NaN
         13   -1    0    0    0    0  0.00000000000E+00  0.00000000000E+00  0.74505805969E-08  0.10566000000E+00  0.10566000000E+00 0.  1.
     999900   -1    0    0    0    0 -0.00000000000E+00 -0.00000000000E+00 -0.74505805969E-08  0.93827000000E+00  0.93827000000E+00 0. -1.
     999902    2    1    2    0    0 -0.20787368167E-01  0.73631444464E-02 -0.91088889506E-02  0.10200699407E+01  0.10197908518E+01 0.  0.
     999903    2    3    3    0    0  0.42223857830E-01  0.89683014835E-02 -0.12169967196E+00  0.13066020636E+00  0.19949806299E-01 0.  0.
         14    1    1    2    0    0  0.20787368167E-01 -0.73631444464E-02  0.91088889506E-02  0.23860059291E-01  0.00000000000E+00 0.  1.
     999901    1    3    3    0    0 -0.63011225997E-01 -0.16051570372E-02  0.11259078300E+00  0.88940973435E+00  0.88000000000E+00 0.  1.
        -11    1    4    4    0    0  0.23152849463E-01  0.76908868307E-02 -0.93193474899E-01  0.96335295003E-01  0.51100000000E-03 0.  1.
         11    1    4    4    0    0  0.19071008366E-01  0.12774146528E-02 -0.28506197056E-01  0.34324911360E-01  0.51100000000E-03 0. -1.
</event>
<event>
 8    1  0.1093753E+005  0.1043930E+01  0.7957747E-01            NaN
         13   -1    0    0    0    0  0.00000000000E+00  0.00000000000E+00  0.74505805969E-08  0.10566000000E+00  0.10566000000E+00 0. -1.
     999900   -1    0    0    0    0 -0.00000000000E+00 -0.00000000000E+00 -0.74505805969E-08  0.93827000000E+00  0.93827000000E+00 0. -1.
     999902    2    1    2    0    0 -0.25712242421E-02 -0.17077711327E-01 -0.29711785993E-01  0.10095635971E+01  0.10089784968E+01 0.  0.
     999903    2    3    3    0    0 -0.94601097995E-01  0.39596789037E-01 -0.63681954305E-01  0.12230068854E+00  0.19616158360E-01 0.  0.
         14    1    1    2    0    0  0.25712242421E-02  0.17077711327E-01  0.29711785993E-01  0.34366402855E-01  0.00000000000E+00 0. -1.
     999901    1    3    3    0    0  0.92029873753E-01 -0.56674500365E-01  0.33970168312E-01  0.88726290861E+00  0.88000000000E+00 0.  1.
        -11    1    4    4    0    0 -0.70153761934E-01  0.20006325762E-01 -0.47294491516E-01  0.86941551819E-01  0.51100000000E-03 0.  1.
         11    1    4    4    0    0 -0.24447336061E-01  0.19590463275E-01 -0.16387462789E-01  0.35359136719E-01  0.51100000000E-03 0. -1.
</event>
<event>
 8    1  0.1093753E+005  0.1043930E+01  0.7957747E-01            NaN
         13   -1    0    0    0    0  0.00000000000E+00  0.00000000000E+00  0.74505805969E-08  0.10566000000E+00  0.10566000000E+00 0.  1.
     999900   -1    0    0    0    0 -0.00000000000E+00 -0.00000000000E+00 -0.74505805969E-08  0.93827000000E+00  0.93827000000E+00 0.  1.
     999902    2    1    2    0    0 -0.49677015792E-02 -0.25293168707E-02  0.23614908089E-01  0.10196660476E+01  0.10193773144E+01 0.  0.
     999903    2    3    3    0    0 -0.10400348968E+00  0.60344446907E-01  0.49260285830E-01  0.13151128466E+00  0.20259913541E-01 0.  0.
         14    1    1    2    0    0  0.49677015792E-02  0.25293168707E-02 -0.23614908089E-01  0.24263952417E-01  0.00000000000E+00 0. -1.
     999901    1    3    3    0    0  0.99035788097E-01 -0.62873763778E-01 -0.25645377740E-01  0.88815476292E+00  0.88000000000E+00 0.  1.
        -11    1    4    4    0    0 -0.53175023606E-01  0.29797042194E-01  0.14093541590E-01  0.62564653715E-01  0.51100000000E-03 0.  1.
         11    1    4    4    0    0 -0.50828466071E-01  0.30547404713E-01  0.35166744240E-01  0.68946630949E-01  0.51100000000E-03 0. -1.
</event>
<event>
 8    1  0.1093753E+005  0.1043930E+01  0.7957747E-01            NaN
         13   -1    0    0    0    0  0.00000000000E+00  0.00000000000E+00  0.74505805969E-08  0.10566000000E+00  0.10566000000E+00 0. -1.
     999900   -1    0    0    0    0 -0.00000000000E+00 -0.00000000000E+00 -0.74505805969E-08  0.93827000000E+00  0.93827000000E+00 0. -1.
     999902    2    1    2    0    0 -0.95513844486E-02 -0.30452928814E-01 -0.12529502055E-02  0.10119897479E+01  0.10114855759E+01 0.  0.
     999903    2    3    3    0    0 -0.11313637291E-01 -0.35768291202E-02 -0.12133582706E+00  0.12342611623E+00  0.19256976458E-01 0.  0.
         14    1    1    2    0    0  0.95513844486E-02  0.30452928814E-01  0.12529502055E-02  0.31940252072E-01  0.00000000000E+00 0.  1.
     999901    1    3    3    0    0  0.17622528428E-02 -0.26876099694E-01  0.12008287686E+00  0.88856363170E+00  0.88000000000E+00 0.  1.
        -11    1    4    4    0    0 -0.72306585912E-02 -0.60028278436E-02 -0.21423343706E-01  0.23399511583E-01  0.51100000000E-03 0. -1.
         11    1    4    4    0    0 -0.40829787001E-02  0.24259987233E-02 -0.99912483356E-01  0.10002660464E+00  0.51100000000E-03 0.  1.
</event>
<event>
 8    1  0.1093753E+005  0.1043930E+01  0.7957747E-01            NaN
         13   -1    0    0    0    0  0.00000000000E+00  0.00000000000E+00  0.74505805969E-08  0.10566000000E+00  0.10566000000E+00 0. -1.
     999900   -1    0    0    0    0 -0.00000000000E+00 -0.00000000000E+00 -0.74505805969E-08  0.93827000000E+00  0.93827000000E+00 0. -1.
     999902    2    1    2    0    0 -0.25636955515E-01 -0.66812018688E-02 -0.52374506029E-02  0.10169240222E+01  0.10165653664E+01 0.  0.
     999903    2    3    3    0    0  0.39364552860E-03  0.15087528914E-01  0.12437062047E+00  0.12678374007E+00  0.19449345130E-01 0.  0.
         14    1    1    2    0    0  0.25636955515E-01  0.66812018688E-02  0.52374506029E-02  0.27005977769E-01  0.00000000000E+00 0.  1.
     999901    1    3    3    0    0 -0.26030601043E-01 -0.21768730783E-01 -0.12960807107E+00  0.89014028216E+00  0.88000000000E+00 0. -1.
        -11    1    4    4    0    0 -0.55989784117E-02  0.14052542246E-01  0.52046554350E-01  0.54202651629E-01  0.51100000000E-03 0.  1.
         11    1    4    4    0    0  0.59926239403E-02  0.10349866677E-02  0.72324066118E-01  0.72581088445E-01  0.51100000000E-03 0. -1.
</event>
<event>
 8    1  0.1093753E+005  0.1043930E+01  0.7957747E-01            NaN
         13   -1    0    0    0    0  0.00000000000E+00  0.00000000000E+00  0.74505805969E-08  0.10566000000E+00  0.10566000000E+00 0.  1.
     999900   -1    0    0    0    0 -0.00000000000E+00 -0.00000000000E+00 -0.74505805969E-08  0.93827000000E+00  0.93827000000E+00 0. -1.
     999902    2    1    2    0    0 -0.11357520604E-01 -0.12858980702E-01  0.16279255495E-01  0.10202791899E+01  0.10200050316E+01 0.  0.
     999903    2    3    3    0    0  0.71404904425E-01  0.77580966776E-01 -0.69072298297E-01  0.12769088008E+00  0.20408617807E-01 0.  0.
         14    1    1    2    0    0  0.11357520604E-01  0.12858980702E-01 -0.16279255495E-01  0.23650810101E-01  0.00000000000E+00 0. -1.
     999901    1    3    3    0    0 -0.82762425029E-01 -0.90439947478E-01  0.85351553793E-01  0.89258830982E+00  0.88000000000E+00 0.  1.
        -11    1    4    4    0    0  0.45658368600E-01  0.51528438933E-01 -0.33258041161E-01  0.76460611199E-01  0.51100000000E-03 0. -1.
         11    1    4    4    0    0  0.25746535826E-01  0.26052527843E-01 -0.35814257137E-01  0.51230268878E-01  0.51100000000E-03 0.  1.
</event>
<event>
 8    1  0.1093753E+005  0.1043930E+01  0.7957747E-01            NaN
         13   -1    0    0    0    0  0.00000000000E+00  0.00000000000E+00  0.74505805969E-08  0.10566000000E+00  0.10566000000E+00 0.  1.
     999900   -1    0    0    0    0 -0.00000000000E+00 -0.00000000000E+00 -0.74505805969E-08  0.93827000000E+00  0.93827000000E+00 0.  1.
     999902    2    1    2    0    0  0.17194169121E-01 -0.14105253068E-01 -0.88092328023E-02  0.10200092935E+01  0.10197287672E+01 0.  0.
     999903    2    3    3    0    0 -0.84756079904E-01 -0.65352174099E-01 -0.71732019495E-01  0.13041422987E+00  0.20196261805E-01 0.  0.
         14    1    1    2    0    0 -0.17194169121E-01  0.14105253068E-01  0.88092328023E-02  0.23920706479E-01  0.00000000000E+00 0.  1.
     999901    1    3    3    0    0  0.10195024903E+00  0.51246921030E-01  0.62922786693E-01  0.88959506365E+00  0.88000000000E+00 0.  1.
        -11    1    4    4    0    0 -0.15787781070E-01 -0.39827351422E-02 -0.14382338354E-01  0.21730830353E-01  0.51100000000E-03 0.  1.
         11    1    4    4    0    0 -0.68968298835E-01 -0.61369438956E-01 -0.57349681142E-01  0.10868339951E+00  0.51100000000E-03 0. -1.
</event>
<event>
 8    1  0.1093753E+005  0.1043930E+01  0.7957747E-01            NaN
         13   -1    0    0    0    0  0.00000000000E+00  0.00000000000E+00  0.74505805969E-08  0.10566000000E+00  0.10566000000E+00 0. -1.
     999900   -1    0    0    0    0 -0.00000000000E+00 -0.00000000000E+00 -0.74505805969E-08  0.93827000000E+00  0.93827000000E+00 0.  1.
     999902    2    1    2    0    0 -0.10587600191E-01 -0.19990602339E-01 -0.82296236341E-02  0.10198582704E+01  0.10195741482E+01 0.  0.
     999903    2    3    3    0    0  0.41759830368E-01 -0.10715488906E+00 -0.61496160515E-01  0.13240393903E+00  0.22868572974E-01 0.  0.
         14    1    1    2    0    0  0.10587600191E-01  0.19990602339E-01  0.82296236341E-02  0.24071729577E-01  0.00000000000E+00 0.  1.
     999901    1    3    3    0    0 -0.52347430559E-01  0.87164286718E-01  0.53266536881E-01  0.88745433140E+00  0.88000000000E+00 0. -1.
        -11    1    4    4    0    0  0.26134011162E-01 -0.58219543063E-01 -0.21651855296E-01  0.67391139571E-01  0.51100000000E-03 0. -1.
         11    1    4    4    0    0  0.15625819206E-01 -0.48935345994E-01 -0.39844305219E-01  0.65012799454E-01  0.51100000000E-03 0.  1.
</event>
<event>
 8    1  0.1093753E+005  0.1043930E+01  0.7957747E-01            NaN
         13   -1    0    0    0    0  0.00000000000E+00  0.00000000000E+00  0.74505805969E-08  0.10566000000E+00  0.10566000000E+00 0. -1.
     999900   -1    0    0    0    0 -0.00000000000E+00 -0.00000000000E+00 -0.74505805969E-08  0.93827000000E+00  0.93827000000E+00 0. -1.
     999902    2    1    2    0    0 -0.42597020142E-02 -0.21423601356E-01 -0.10049765772E-01  0.10198860081E+01  0.10196025480E+01 0.  0.
     999903    2    3    3    0    0 -0.12824806468E+00 -0.14377949856E-01 -0.13619268299E-01  0.13115911152E+00  0.19050893187E-01 0.  0.
         14    1    1    2    0    0  0.42597020142E-02  0.21423601356E-01  0.10049765772E-01  0.24043991939E-01  0.00000000000E+00 0.  1.
     999901    1    3    3    0    0  0.12398836266E+00 -0.70456515001E-02  0.35695025272E-02  0.88872689654E+00  0.88000000000E+00 0.  1.
        -11    1    4    4    0    0 -0.10960640167E+00 -0.10100144188E-01 -0.50307479408E-02  0.11018686739E+00  0.51100000000E-03 0. -1.
         11    1    4    4    0    0 -0.18641663004E-01 -0.42778056675E-02 -0.85885203579E-02  0.20972244130E-01  0.51100000000E-03 0.  1.
</event>
<event>
 8    1  0.1093753E+005  0.1043930E+01  0.7957747E-01            NaN
         13   -1    0    0    0    0  0.00000000000E+00  0.00000000000E+00  0.74505805969E-08  0.10566000000E+00  0.10566000000E+00 0. -1.
     999900   -1    0    0    0    0 -0.00000000000E+00 -0.00000000000E+00 -0.74505805969E-08  0.93827000000E+00  0.93827000000E+00 0. -1.
     999902    2    1    2    0    0 -0.96424184674E-02 -0.18301844040E-01 -0.10661214833E-01  0.10206578013E+01  0.10203924501E+01 0.  0.
     999903    2    3    3    0    0  0.19762735770E-01  0.11061129121E+00  0.58000348445E-01  0.12813459726E+00  0.20712583762E-01 0.  0.
         14    1    1    2    0    0  0.96424184674E-02  0.18301844040E-01  0.10661214833E-01  0.23272198668E-01  0.00000000000E+00 0. -1.
     999901    1    3    3    0    0 -0.29405154237E-01 -0.12891313525E+00 -0.68661563278E-01  0.89252320407E+00  0.88000000000E+00 0. -1.
        -11    1    4    4    0    0  0.72218962457E-02  0.88756839767E-01  0.45533559061E-01  0.10001749103E+00  0.51100000000E-03 0. -1.
         11    1    4    4    0    0  0.12540839524E-01  0.21854451445E-01  0.12466789384E-01  0.28117106225E-01  0.51100000000E-03 0.  1.
</event>
<event>
 8    1  0.1093753E+005  0.1043930E+01  0.7957747E-01            NaN
         13   -1    0    0    0    0  0.00000000000E+00  0.00000000000E+00  0.74505805969E-08  0.10566000000E+00  0.10566000000E+00 0.  1.
     999900   -1    0    0    0    0 -0.00000000000E+00 -0.00000000000E+00 -0.74505805969E-08  0.93827000000E+00  0.93827000000E+00 0.  1.
     999902    2    1    2    0    0 -0.15256198746E-01 -0.11823184269E-01 -0.13033940716E-01  0.10206400258E+01  0.10203742644E+01 0.  0.
     999903    2    3    3    0    0 -0.87887019145E-01 -0.64882228438E-01 -0.74777665063E-01  0.13390286875E+00  0.20110876817E-01 0.  0.
         14    1    1    2    0    0  0.15256198746E-01  0.11823184269E-01  0.13033940716E-01  0.23289974174E-01  0.00000000000E+00 0.  1.
     999901    1    3    3    0    0  0.72630820399E-01  0.53059044169E-01  0.61743724347E-01  0.88673715707E+00  0.88000000000E+00 0. -1.
        -11    1    4    4    0    0 -0.12122311458E-01 -0.17946267115E-01 -0.18569896547E-01  0.28532807735E-01  0.51100000000E-03 0. -1.
         11    1    4    4    0    0 -0.75764707687E-01 -0.46935961323E-01 -0.56207768516E-01  0.10537006102E+00  0.51100000000E-03 0.  1.
</event>
<event>
 8    1  0.1093753E+005  0.1043930E+01  0.7957747E-01            NaN
         13   -1    0    0    0    0  0.00000000000E+00  0.00000000000E+00  0.74505805969E-08  0.10566000000E+00  0.10566000000E+00 0. -1.
     999900   -1    0    0    0    0 -0.00000000000E+00 -0.00000000000E+00 -0.74505805969E-08  0.93827000000E+00  0.93827000000E+00 0. -1.
     999902    2    1    2    0    0  0.15292031830E-01 -0.17417896574E-01  0.12476707598E-02  0.10207182349E+01  0.10204542758E+01 0.  0.
     999903    2    3    3    0    0 -0.20755552840E-01  0.48811569899E-01 -0.11655861692E+00  0.12967160757E+00  0.20382647046E-01 0.  0.
         14    1    1    2    0    0 -0.15292031830E-01  0.17417896574E-01 -0.12476707598E-02  0.23211765139E-01  0.00000000000E+00 0. -1.
     999901    1    3    3    0    0  0.36047584670E-01 -0.66229466473E-01  0.11780628768E+00  0.89104662729E+00  0.88000000000E+00 0.  1.
        -11    1    4    4    0    0 -0.74276634283E-02  0.88906038842E-02 -0.46654218317E-01  0.48073799820E-01  0.51100000000E-03 0.  1.
         11    1    4    4    0    0 -0.13327889412E-01  0.39920966015E-01 -0.69904398608E-01  0.81597807749E-01  0.51100000000E-03 0. -1.
</event>
<event>
 8    1  0.1093753E+005  0.1043930E+01  0.7957747E-01            NaN
         13   -1    0    0    0    0  0.00000000000E+00  0.00000000000E+00  0.74505805969E-08  0.10566000000E+00  0.10566000000E+00 0. -1.
     999900   -1    0    0    0    0 -0.00000000000E+00 -0.00000000000E+00 -0.74505805969E-08  0.93827000000E+00  0.93827000000E+00 0. -1.
     999902    2    1    2    0    0 -0.20734531111E-01  0.64558266516E-02  0.87407606879E-02  0.10205206135E+01  0.10202520881E+01 0.  0.
     999903    2    3    3    0    0 -0.91191233404E-01  0.97617239964E-02  0.95115662163E-01  0.13348301597E+00  0.18962965453E-01 0.  0.
         14    1    1    2    0    0  0.20734531111E-01 -0.64558266516E-02 -0.87407606879E-02  0.23409386484E-01  0.00000000000E+00 0.  1.
     999901    1    3    3    0    0  0.70456702293E-01 -0.33058973448E-02 -0.86374901475E-01  0.88703759755E+00  0.88000000000E+00 0. -1.
        -11    1    4    4    0    0 -0.50637187053E-01 -0.24789921317E-02  0.59199115565E-01  0.77942713061E-01  0.51100000000E-03 0.  1.
         11    1    4    4    0    0 -0.40554046351E-01  0.12240716128E-01  0.35916546598E-01  0.55540302910E-01  0.51100000000E-03 0. -1.
</event>
<event>
 8    1  0.1093753E+005  0.1043930E+01  0.7957747E-01            NaN
         13   -1    0    0    0    0  0.00000000000E+00  0.00000000000E+00  0.74505805969E-08  0.10566000000E+00  0.10566000000E+00 0. -1.
     999900   -1    0    0    0    0 -0.00000000000E+00 -0.00000000000E+00 -0.74505805969E-08  0.93827000000E+00  0.93827000000E+00 0. -1.
     999902    2    1    2    0    0 -0.18398953844E-01  0.11015123964E-01  0.11054556007E-01  0.10198041287E+01  0.10195187116E+01 0.  0.
     999903    2    3    3    0    0  0.96967734312E-01  0.57587528335E-01 -0.57952437816E-01  0.12837806513E+00  0.20084263476E-01 0.  0.
         14    1    1    2    0    0  0.18398953844E-01 -0.11015123964E-01 -0.11054556007E-01  0.24125871321E-01  0.00000000000E+00 0. -1.
     999901    1    3    3    0    0 -0.11536668816E+00 -0.46572404372E-01  0.69006993823E-01  0.89142606355E+00  0.88000000000E+00 0.  1.
        -11    1    4    4    0    0  0.67165707744E-01  0.35036348630E-01 -0.29068891395E-01  0.81142095055E-01  0.51100000000E-03 0. -1.
         11    1    4    4    0    0  0.29802026568E-01  0.22551179705E-01 -0.28883546421E-01  0.47235970071E-01  0.51100000000E-03 0.  1.
</event>
<event>
 8    1  0.1093753E+005  0.1043930E+01  0.7957747E-01            NaN
         13   -1    0    0    0    0  0.00000000000E+00  0.00000000000E+00  0.74505805969E-08  0.10566000000E+00  0.10566000000E+00 0. -1.
     999900   -1    0    0    0    0 -0.00000000000E+00 -0.00000000000E+00 -0.74505805969E-08  0.93827000000E+00  0.93827000000E+00 0. -1.
     999902    2    1    2    0    0  0.18513990239E-01  0.11877056123E-01  0.12018782801E-01  0.10188644173E+01  0.10185560453E+01 0.  0.
     999903    2    3    3    0    0 -0.11476415310E+00  0.27825834781E-01 -0.42356673414E-01  0.12702692241E+00  0.19916408218E-01 0.  0.
         14    1    1    2    0    0 -0.18513990239E-01 -0.11877056123E-01 -0.12018782801E-01  0.25065582713E-01  0.00000000000E+00 0.  1.
     999901    1    3    3    0    0  0.13327814334E+00 -0.15948778658E-01  0.54375456215E-01  0.89183749488E+00  0.88000000000E+00 0.  1.
        -11    1    4    4    0    0 -0.67068674369E-01  0.18134452252E-01 -0.35015249435E-01  0.77803561963E-01  0.51100000000E-03 0.  1.
         11    1    4    4    0    0 -0.47695478729E-01  0.96913825283E-02 -0.73414239786E-02  0.49223360446E-01  0.51100000000E-03 0. -1.
</event>
<event>
 8    1  0.1093753E+005  0.1043930E+01  0.7957747E-01            NaN
         13   -1    0    0    0    0  0.00000000000E+00  0.00000000000E+00  0.74505805969E-08  0.10566000000E+00  0.10566000000E+00 0.  1.
     999900   -1    0    0    0    0 -0.00000000000E+00 -0.00000000000E+00 -0.74505805969E-08  0.93827000000E+00  0.93827000000E+00 0.  1.
     999902    2    1    2    0    0  0.69980282642E-02 -0.23786245154E-01 -0.28658785616E-02  0.10189706106E+01  0.10186648783E+01 0.  0.
     999903    2    3    3    0    0 -0.46583186370E-01 -0.25443109868E-01 -0.11684847893E+00  0.13000169950E+00  0.20725099589E-01 0.  0.
         14    1    1    2    0    0 -0.69980282642E-02  0.23786245154E-01  0.28658785616E-02  0.24959389377E-01  0.00000000000E+00 0.  1.
     999901    1    3    3    0    0  0.53581214635E-01  0.16568647133E-02  0.11398260036E+00  0.88896891113E+00  0.88000000000E+00 0. -1.
        -11    1    4    4    0    0 -0.46471588950E-01 -0.26405043031E-01 -0.10239538484E+00  0.11550718954E+00  0.51100000000E-03 0.  1.
         11    1    4    4    0    0 -0.11159742013E-03  0.96193316317E-03 -0.14453094082E-01  0.14494509958E-01  0.51100000000E-03 0. -1.
</event>
<event>
 8    1  0.1093753E+005  0.1043930E+01  0.7957747E-01            NaN
         13   -1    0    0    0    0  0.00000000000E+00  0.00000000000E+00  0.74505805969E-08  0.10566000000E+00  0.10566000000E+00 0. -1.
     999900   -1    0    0    0    0 -0.00000000000E+00 -0.00000000000E+00 -0.74505805969E-08  0.93827000000E+00  0.93827000000E+00 0.  1.
     999902    2    1    2    0    0 -0.91105817445E-02  0.67964081668E-02 -0.23906428100E-01  0.10174590505E+01  0.10171146485E+01 0.  0.
     999903    2    3    3    0    0  0.10269488703E-01  0.86004011031E-01 -0.96078164331E-01  0.13074703918E+00  0.19016368783E-01 0.  0.
         14    1    1    2    0    0  0.91105817445E-02 -0.67964081668E-02  0.23906428100E-01  0.26470949515E-01  0.00000000000E+00 0. -1.
     999901    1    3    3    0    0 -0.19380070447E-01 -0.79207602864E-01  0.72171736230E-01  0.88671201130E+00  0.88000000000E+00 0. -1.
        -11    1    4    4    0    0 -0.28286408965E-02  0.23419004601E-01 -0.17157197822E-01  0.29173301903E-01  0.51100000000E-03 0. -1.
         11    1    4    4    0    0  0.13098129599E-01  0.62585006430E-01 -0.78920966509E-01  0.10157373728E+00  0.51100000000E-03 0.  1.
</event>
<event>
 8    1  0.1093753E+005  0.1043930E+01  0.7957747E-01            NaN
         13   -1    0    0    0    0  0.00000000000E+00  0.00000000000E+00  0.74505805969E-08  0.10566000000E+00  0.10566000000E+00 0.  1.
     999900   -1    0    0    0    0 -0.00000000000E+00 -0.00000000000E+00 -0.74505805969E-08  0.93827000000E+00  0.93827000000E+00 0.  1.
     999902    2    1    2    0    0  0.18683983277E-02 -0.22264533947E-01 -0.77456891456E-02  0.10202826728E+01  0.10200085962E+01 0.  0.
     999903    2    3    3    0    0  0.97039728653E-01  0.80504085777E-01  0.17719003225E-01  0.12884146784E+00  0.19711519363E-01 0.  0.
         14    1    1    2    0    0 -0.18683983277E-02  0.22264533947E-01  0.77456891456E-02  0.23647327217E-01  0.00000000000E+00 0.  1.
     999901    1    3    3    0    0 -0.95171330325E-01 -0.10276861972E+00 -0.25464692371E-01  0.89144120494E+00  0.88000000000E+00 0.  1.
        -11    1    4    4    0    0  0.27194295155E-01  0.24607715174E-01 -0.36651254382E-02  0.36861410724E-01  0.51100000000E-03 0.  1.
         11    1    4    4    0    0  0.69845433498E-01  0.55896370602E-01  0.21384128664E-01  0.91980057114E-01  0.51100000000E-03 0. -1.
</event>
<event>
 8    1  0.1093753E+005  0.1043930E+01  0.7957747E-01            NaN
         13   -1    0    0    0    0  0.00000000000E+00  0.00000000000E+00  0.74505805969E-08  0.10566000000E+00  0.10566000000E+00 0. -1.
     999900   -1    0    0    0    0 -0.00000000000E+00 -0.00000000000E+00 -0.74505805969E-08  0.93827000000E+00  0.93827000000E+00 0. -1.
     999902    2    1    2    0    0 -0.17681705824E-01 -0.15962465200E-01 -0.14844555616E-02  0.10200627290E+01  0.10197834694E+01 0.  0.
     999903    2    3    3    0    0 -0.12393826619E+00  0.33698845871E-01 -0.22529785810E-01  0.13203141855E+00  0.20697782385E-01 0.  0.
         14    1    1    2    0    0  0.17681705824E-01  0.15962465200E-01  0.14844555616E-02  0.23867270988E-01  0.00000000000E+00 0.  1.
     999901    1    3    3    0    0  0.10625656037E+00 -0.49661311071E-01  0.21045330248E-01  0.88803131046E+00  0.88000000000E+00 0. -1.
        -11    1    4    4    0    0 -0.10418450990E+00  0.20465178794E-01 -0.16057681142E-01  0.10738410446E+00  0.51100000000E-03 0. -1.
         11    1    4    4    0    0 -0.19753756295E-01  0.13233667078E-01 -0.64721046675E-02  0.24647314092E-01  0.51100000000E-03 0.  1.
</event>
<event>
 8    1  0.1093753E+005  0.1043930E+01  0.7957747E-01            NaN
         13   -1    0    0    0    0  0.00000000000E+00  0.00000000000E+00  0.74505805969E-08  0.10566000000E+00  0.10566000000E+00 0. -1.
     999900   -1    0    0    0    0 -0.00000000000E+00 -0.00000000000E+00 -0.74505805969E-08  0.93827000000E+00  0.93827000000E+00 0. -1.
     999902    2    1    2    0    0  0.31140396196E-02  0.42740314283E-02  0.23210165379E-01  0.10201250349E+01  0.10198472486E+01 0.  0.
     999903    2    3    3    0    0 -0.73326064966E-01 -0.14806119352E-01  0.10739323036E+00  0.13260380687E+00  0.21319725506E-01 0.  0.
         14    1    1    2    0    0 -0.31140396196E-02 -0.42740314283E-02 -0.23210165379E-01  0.23804965119E-01  0.00000000000E+00 0.  1.
     999901    1    3    3    0    0  0.76440104585E-01  0.19080150780E-01 -0.84183064980E-01  0.88752122801E+00  0.88000000000E+00 0.  1.
        -11    1    4    4    0    0 -0.56407194744E-01 -0.15455650720E-01  0.67816205437E-01  0.89554160143E-01  0.51100000000E-03 0.  1.
         11    1    4    4    0    0 -0.16918870222E-01  0.64953136845E-03  0.39577024921E-01  0.43049646726E-01  0.51100000000E-03 0. -1.
</event>
<event>
 8    1  0.1093753E+005  0.1043930E+01  0.7957747E-01            NaN
         13   -1    0    0    0    0  0.00000000000E+00  0.00000000000E+00  0.74505805969E-08  0.10566000000E+00  0.10566000000E+00 0.  1.
     999900   -1    0    0    0    0 -0.00000000000E+00 -0.00000000000E+00 -0.74505805969E-08  0.93827000000E+00  0.93827000000E+00 0.  1.
     999902    2    1    2    0    0  0.16527644540E-01  0.36868248560E-02  0.12824463074E-01  0.10226880000E+01  0.10224673700E+01 0.  0.
     999903    2    3    3    0    0  0.88732867044E-01 -0.30201288147E-01 -0.91998640456E-01  0.13288471757E+00  0.20222730240E-01 0.  0.
         14    1    1    2    0    0 -0.16527644540E-01 -0.36868248560E-02 -0.12824463074E-01  0.21242000017E-01  0.00000000000E+00 0.  1.
     999901    1    3    3    0    0 -0.72205222504E-01  0.33888113002E-01  0.10482310353E+00  0.88980328241E+00  0.88000000000E+00 0. -1.
        -11    1    4    4    0    0  0.38114102893E-01 -0.15166936788E-01 -0.54054793497E-01  0.67859432888E-01  0.51100000000E-03 0. -1.
         11    1    4    4    0    0  0.50618764151E-01 -0.15034351358E-01 -0.37943846959E-01  0.65025284682E-01  0.51100000000E-03 0.  1.
</event>
<event>
 8    1  0.1093753E+005  0.1043930E+01  0.7957747E-01            NaN
         13   -1    0    0    0    0  0.00000000000E+00  0.00000000000E+00  0.74505805969E-08  0.10566000000E+00  0.10566000000E+00 0.  1.
     999900   -1    0    0    0    0 -0.00000000000E+00 -0.00000000000E+00 -0.74505805969E-08  0.93827000000E+00  0.93827000000E+00 0.  1.
     999902    2    1    2    0    0  0.17443528525E-03  0.17064787545E-01 -0.16138472768E-01  0.10204419668E+01  0.10201716129E+01 0.  0.
     999903    2    3    3    0    0 -0.69466580625E-01  0.10539972872E+00  0.32893010439E-01  0.13192802807E+00  0.19706491732E-01 0.  0.
         14    1    1    2    0    0 -0.17443528525E-03 -0.17064787545E-01  0.16138472768E-01  0.23488033228E-01  0.00000000000E+00 0.  1.
     999901    1    3    3    0    0  0.69641015910E-01 -0.88334941172E-01 -0.49031483207E-01  0.88851393871E+00  0.88000000000E+00 0.  1.
        -11    1    4    4    0    0 -0.53987439796E-01  0.73196044631E-01  0.31190845263E-01  0.96153182758E-01  0.51100000000E-03 0.  1.
         11    1    4    4    0    0 -0.15479140828E-01  0.32203684086E-01  0.17021651763E-02  0.35774845308E-01  0.51100000000E-03 0. -1.
</event>
<event>
 8    1  0.1093753E+005  0.1043930E+01  0.7957747E-01            NaN
         13   -1    0    0    0    0  0.00000000000E+00  0.00000000000E+00  0.74505805969E-08  0.10566000000E+00  0.10566000000E+00 0. -1.
     999900   -1    0    0    0    0 -0.00000000000E+00 -0.00000000000E+00 -0.74505805969E-08  0.93827000000E+00  0.93827000000E+00 0.  1.
     999902    2    1    2    0    0  0.19358857842E-01 -0.20140768629E-02  0.15216683995E-01  0.10192243457E+01  0.10189248733E+01 0.  0.
     999903    2    3    3    0    0  0.43953541575E-01 -0.60554694076E-01 -0.10349178708E+00  0.12898639805E+00  0.18115079282E-01 0.  0.
         14    1    1    2    0    0 -0.19358857842E-01  0.20140768629E-02 -0.15216683995E-01  0.24705654299E-01  0.00000000000E+00 0.  1.
     999901    1    3    3    0    0 -0.24594683734E-01  0.58540617213E-01  0.11870847108E+00  0.89023794765E+00  0.88000000000E+00 0. -1.
        -11    1    4    4    0    0  0.34865676509E-01 -0.43800621181E-01 -0.63330720920E-01  0.84528995898E-01  0.51100000000E-03 0. -1.
         11    1    4    4    0    0  0.90878650663E-02 -0.16754072895E-01 -0.40161066161E-01  0.44457402153E-01  0.51100000000E-03 0.  1.
</event>
<event>
 8    1  0.1093753E+005  0.1043930E+01  0.7957747E-01            NaN
         13   -1    0    0    0    0  0.00000000000E+00  0.00000000000E+00  0.74505805969E-08  0.10566000000E+00  0.10566000000E+00 0.  1.
     999900   -1    0    0    0    0 -0.00000000000E+00 -0.00000000000E+00 -0.74505805969E-08  0.93827000000E+00  0.93827000000E+00 0. -1.
     999902    2    1    2    0    0  0.46037121759E-02 -0.21597161839E-01  0.12067925192E-01  0.10187652154E+01  0.10184543670E+01 0.  0.
     999903    2    3    3    0    0  0.37201169503E-01  0.34034942838E-01  0.11822579086E+00  0.13004308913E+00  0.19787952353E-01 0.  0.
         14    1    1    2    0    0 -0.46037121759E-02  0.21597161839E-01 -0.12067925192E-01  0.25164784595E-01  0.00000000000E+00 0. -1.
     999901    1    3    3    0    0 -0.32597457327E-01 -0.55632104677E-01 -0.10615786567E+00  0.88872212628E+00  0.88000000000E+00 0. -1.
        -11    1    4    4    0    0  0.26718326707E-01  0.14107189671E-01  0.52627806573E-01  0.60686315823E-01  0.51100000000E-03 0.  1.
         11    1    4    4    0    0  0.10482842795E-01  0.19927753166E-01  0.65597984288E-01  0.69356773302E-01  0.51100000000E-03 0. -1.
</event>
<event>
 8    1  0.1093753E+005  0.1043930E+01  0.7957747E-01            NaN
         13   -1    0    0    0    0  0.00000000000E+00  0.00000000000E+00  0.74505805969E-08  0.10566000000E+00  0.10566000000E+00 0. -1.
     999900   -1    0    0    0    0 -0.00000000000E+00 -0.00000000000E+00 -0.74505805969E-08  0.93827000000E+00  0.93827000000E+00 0.  1.
     999902    2    1    2    0    0  0.16618961710E-01 -0.15166677943E-01 -0.22829008192E-03  0.10214295528E+01  0.10211816984E+01 0.  0.
     999903    2    3    3    0    0  0.27664538113E-01  0.11167307698E+00  0.57915762687E-01  0.13036779340E+00  0.20132640085E-01 0.  0.
         14    1    1    2    0    0 -0.16618961710E-01  0.15166677943E-01  0.22829008192E-03  0.22500447207E-01  0.00000000000E+00 0.  1.
     999901    1    3    3    0    0 -0.11045576403E-01 -0.12683975492E+00 -0.58144052769E-01  0.89106175940E+00  0.88000000000E+00 0. -1.
        -11    1    4    4    0    0  0.45782531228E-02  0.41080438358E-01  0.29762630448E-01  0.50937590339E-01  0.51100000000E-03 0. -1.
         11    1    4    4    0    0  0.23086284991E-01  0.70592638619E-01  0.28153132239E-01  0.79430203058E-01  0.51100000000E-03 0.  1.
</event>
<event>
 8    1  0.1093753E+005  0.1043930E+01  0.7957747E-01            NaN
         13   -1    0    0    0    0  0.00000000000E+00  0.00000000000E+00  0.74505805969E-08  0.10566000000E+00  0.10566000000E+00 0.  1.
     999900   -1    0    0    0    0 -0.00000000000E+00 -0.00000000000E+00 -0.74505805969E-08  0.93827000000E+00  0.93827000000E+00 0.  1.
     999902    2    1    2    0    0  0.74270777175E-02 -0.12680312430E-01 -0.17999843011E-01  0.10206932585E+01  0.10204287245E+01 0.  0.
     999903    2    3    3    0    0  0.97520467921E-01 -0.87873635715E-01 -0.29150310693E-02  0.13277524068E+00  0.19716734395E-01 0.  0.
         14    1    1    2    0    0 -0.74270777175E-02  0.12680312430E-01  0.17999843011E-01  0.23236741492E-01  0.00000000000E+00 0.  1.
     999901    1    3    3    0    0 -0.90093390204E-01  0.75193323285E-01 -0.15084811941E-01  0.88791801782E+00  0.88000000000E+00 0.  1.
        -11    1    4    4    0    0  0.51891814079E-01 -0.57969141278E-01  0.32425814600E-02  0.77871414296E-01  0.51100000000E-03 0. -1.
         11    1    4    4    0    0  0.45628653843E-01 -0.29904494437E-01 -0.61576125293E-02  0.54903826388E-01  0.51100000000E-03 0.  1.
</event>
<event>
 8    1  0.1093753E+005  0.1043930E+01  0.7957747E-01            NaN
         13   -1    0    0    0    0  0.00000000000E+00  0.00000000000E+00  0.74505805969E-08  0.10566000000E+00  0.10566000000E+00 0.  1.
     999900   -1    0    0    0    0 -0.00000000000E+00 -0.00000000000E+00 -0.74505805969E-08  0.93827000000E+00  0.93827000000E+00 0.  1.
     999902    2    1    2    0    0 -0.19411201556E-01 -0.10224446130E-01 -0.93009228549E-02  0.10201005810E+01  0.10198222169E+01 0.  0.
     999903    2    3    3    0    0 -0.71165742115E-01 -0.31958411952E-01 -0.10588264080E+00  0.13303861811E+00  0.20055855516E-01 0.  0.
         14    1    1    2    0    0  0.19411201556E-01  0.10224446130E-01  0.93009228549E-02  0.23829419013E-01  0.00000000000E+00 0.  1.
     999901    1    3    3    0    0  0.51754540559E-01  0.21733965821E-01  0.96581717948E-01  0.88706196288E+00  0.88000000000E+00 0.  1.
        -11    1    4    4    0    0 -0.23331777111E-01 -0.42354471475E-02 -0.44501634147E-01  0.50427843484E-01  0.51100000000E-03 0.  1.
         11    1    4    4    0    0 -0.47833965004E-01 -0.27722964804E-01 -0.61381006656E-01  0.82610774628E-01  0.51100000000E-03 0. -1.
</event>
<event>
 8    1  0.1093753E+005  0.1043930E+01  0.7957747E-01            NaN
         13   -1    0    0    0    0  0.00000000000E+00  0.00000000000E+00  0.74505805969E-08  0.10566000000E+00  0.10566000000E+00 0.  1.
     999900   -1    0    0    0    0 -0.00000000000E+00 -0.00000000000E+00 -0.74505805969E-08  0.93827000000E+00  0.93827000000E+00 0.  1.
     999902    2    1    2    0    0  0.52367635699E-03  0.14495354880E-02 -0.19373740720E-01  0.10244950516E+01  0.10243106919E+01 0.  0.
     999903    2    3    3    0    0  0.45395681095E-01 -0.10208358369E+00  0.68950679248E-01  0.13290444670E+00  0.20677762519E-01 0.  0.
         14    1    1    2    0    0 -0.52367635699E-03 -0.14495354880E-02  0.19373740720E-01  0.19434948406E-01  0.00000000000E+00 0.  1.
     999901    1    3    3    0    0 -0.44872004738E-01  0.10353311918E+00 -0.88324419967E-01  0.89159060490E+00  0.88000000000E+00 0.  1.
        -11    1    4    4    0    0  0.23539329547E-01 -0.65154402337E-01  0.32165095500E-01  0.76380957502E-01  0.51100000000E-03 0. -1.
         11    1    4    4    0    0  0.21856351548E-01 -0.36929181351E-01  0.36785583748E-01  0.56523489196E-01  0.51100000000E-03 0.  1.
</event>
<event>
 8    1  0.1093753E+005  0.1043930E+01  0.7957747E-01            NaN
         13   -1    0    0    0    0  0.00000000000E+00  0.00000000000E+00  0.74505805969E-08  0.10566000000E+00  0.10566000000E+00 0. -1.
     999900   -1    0    0    0    0 -0.00000000000E+00 -0.00000000000E+00 -0.74505805969E-08  0.93827000000E+00  0.93827000000E+00 0.  1.
     999902    2    1    2    0    0 -0.12961541071E-01  0.11868420825E-01 -0.16187036908E-01  0.10200368812E+01  0.10197570093E+01 0.  0.
     999903    2    3    3    0    0  0.19723019383E-01 -0.11113480506E+00  0.57074525380E-01  0.12786798996E+00  0.18782412538E-01 0.  0.
         14    1    1    2    0    0  0.12961541071E-01 -0.11868420825E-01  0.16187036908E-01  0.23893118751E-01  0.00000000000E+00 0. -1.
     999901    1    3    3    0    0 -0.32684560454E-01  0.12300322588E+00 -0.73261562288E-01  0.89216889129E+00  0.88000000000E+00 0.  1.
        -11    1    4    4    0    0  0.26863899663E-02 -0.30399150083E-01  0.68885165758E-02  0.31289579710E-01  0.51100000000E-03 0.  1.
         11    1    4    4    0    0  0.17036629416E-01 -0.80735654976E-01  0.50186008804E-01  0.96578410253E-01  0.51100000000E-03 0. -1.
</event>
<event>
 8    1  0.1093753E+005  0.1043930E+01  0.7957747E-01            NaN
         13   -1    0    0    0    0  0.00000000000E+00  0.00000000000E+00  0.74505805969E-08  0.10566000000E+00  0.10566000000E+00 0. -1.
     999900   -1    0    0    0    0 -0.00000000000E+00 -0.00000000000E+00 -0.74505805969E-08  0.93827000000E+00  0.93827000000E+00 0. -1.
     999902    2    1    2    0    0 -0.13328138678E-01  0.20996137249E-01  0.94722788885E-02  0.10173179515E+01  0.10169698192E+01 0.  0.
     999903    2    3    3    0    0  0.10050564289E+00  0.34057291406E-01 -0.65905811798E-01  0.12669424858E+00  0.21132279696E-01 0.  0.
         14    1    1    2    0    0  0.13328138678E-01 -0.20996137249E-01 -0.94722788885E-02  0.26612048537E-01  0.00000000000E+00 0.  1.
     999901    1    3    3    0    0 -0.11383378157E+00 -0.13061154157E-01  0.75378090686E-01  0.89062370288E+00  0.88000000000E+00 0.  1.
        -11    1    4    4    0    0  0.48662948931E-01  0.27209515543E-01 -0.37355988039E-01  0.67113123144E-01  0.51100000000E-03 0. -1.
         11    1    4    4    0    0  0.51842693958E-01  0.68477758627E-02 -0.28549823759E-01  0.59581125440E-01  0.51100000000E-03 0.  1.
</event>
<event>
 8    1  0.1093753E+005  0.1043930E+01  0.7957747E-01            NaN
         13   -1    0    0    0    0  0.00000000000E+00  0.00000000000E+00  0.74505805969E-08  0.10566000000E+00  0.10566000000E+00 0.  1.
     999900   -1    0    0    0    0 -0.00000000000E+00 -0.00000000000E+00 -0.74505805969E-08  0.93827000000E+00  0.93827000000E+00 0. -1.
     999902    2    1    2    0    0 -0.12375066392E-01  0.16583008632E-01 -0.11579448927E-01  0.10202187773E+01  0.10199432001E+01 0.  0.
     999903    2    3    3    0    0 -0.26947417966E-01 -0.10344755566E+00  0.68277402195E-01  0.12836856206E+00  0.19726225331E-01 0.  0.
         14    1    1    2    0    0  0.12375066392E-01 -0.16583008632E-01  0.11579448927E-01  0.23711222680E-01  0.00000000000E+00 0.  1.
     999901    1    3    3    0    0  0.14572351574E-01  0.12003056430E+00 -0.79856851122E-01  0.89185021526E+00  0.88000000000E+00 0. -1.
        -11    1    4    4    0    0 -0.19936016247E-01 -0.63895807693E-01  0.31795412426E-01  0.74103497602E-01  0.51100000000E-03 0.  1.
         11    1    4    4    0    0 -0.70114017195E-02 -0.39551747972E-01  0.36481989769E-01  0.54265064454E-01  0.51100000000E-03 0. -1.
</event>
<event>
 8    1  0.1093753E+005  0.1043930E+01  0.7957747E-01            NaN
         13   -1    0    0    0    0  0.00000000000E+00  0.00000000000E+00  0.74505805969E-08  0.10566000000E+00  0.10566000000E+00 0.  1.
     999900   -1    0    0    0    0 -0.00000000000E+00 -0.00000000000E+00 -0.74505805969E-08  0.93827000000E+00  0.93827000000E+00 0.  1.
     999902    2    1    2    0    0  0.16242965674E-01  0.10024606286E-02  0.19957287588E-01  0.10181786469E+01  0.10178529485E+01 0.  0.
     999903    2    3    3    0    0  0.60157799630E-01 -0.46177379072E-01  0.10578898159E+00  0.13165649281E+00  0.19768972614E-01 0.  0.
         14    1    1    2    0    0 -0.16242965674E-01 -0.10024606286E-02 -0.19957287588E-01  0.25751353150E-01  0.00000000000E+00 0. -1.
     999901    1    3    3    0    0 -0.43914833956E-01  0.47179839700E-01 -0.85831694001E-01  0.88652215404E+00  0.88000000000E+00 0.  1.
        -11    1    4    4    0    0  0.20643777742E-01 -0.24585411885E-01  0.55780995305E-01  0.64361390564E-01  0.51100000000E-03 0. -1.
         11    1    4    4    0    0  0.39514021887E-01 -0.21591967187E-01  0.50007986283E-01  0.67295102243E-01  0.51100000000E-03 0.  1.
</event>
<event>
 8    1  0.1093753E+005  0.1043930E+01  0.7957747E-01            NaN
         13   -1    0    0    0    0  0.00000000000E+00  0.00000000000E+00  0.74505805969E-08  0.10566000000E+00  0.10566000000E+00 0.  1.
     999900   -1    0    0    0    0 -0.00000000000E+00 -0.00000000000E+00 -0.74505805969E-08  0.93827000000E+00  0.93827000000E+00 0. -1.
     999902    2    1    2    0    0 -0.16620317089E-01  0.16270725196E-01 -0.91540216382E-02  0.10189346494E+01  0.10186280245E+01 0.  0.
     999903    2    3    3    0    0 -0.12837644306E+00  0.75791056415E-02  0.16496968144E-01  0.13145341062E+00  0.21677066957E-01 0.  0.
         14    1    1    2    0    0  0.16620317089E-01 -0.16270725196E-01  0.91540216382E-02  0.24995350581E-01  0.00000000000E+00 0.  1.
     999901    1    3    3    0    0  0.11175612597E+00  0.86916195541E-02 -0.25650989782E-01  0.88748123880E+00  0.88000000000E+00 0.  1.
        -11    1    4    4    0    0 -0.26012269421E-01  0.99747058367E-02  0.61845275738E-02  0.28541941407E-01  0.51100000000E-03 0.  1.
         11    1    4    4    0    0 -0.10236417364E+00 -0.23956001952E-02  0.10312440570E-01  0.10291146921E+00  0.51100000000E-03 0. -1.
</event>
<event>
 8    1  0.1093753E+005  0.1043930E+01  0.7957747E-01            NaN
         13   -1    0    0    0    0  0.00000000000E+00  0.00000000000E+00  0.74505805969E-08  0.10566000000E+00  0.10566000000E+00 0. -1.
     999900   -1    0    0    0    0 -0.00000000000E+00 -0.00000000000E+00 -0.74505805969E-08  0.93827000000E+00  0.93827000000E+00 0. -1.
     999902    2    1    2    0    0 -0.18368412958E-01 -0.10104894458E-01 -0.72714086177E-02  0.10217403432E+01  0.10214993627E+01 0.  0.
     999903    2    3    3    0    0  0.97070687113E-01 -0.52414127646E-01  0.66120275377E-01  0.13016724112E+00  0.20041476263E-01 0.  0.
         14    1    1    2    0    0  0.18368412958E-01  0.10104894458E-01  0.72714086177E-02  0.22189656822E-01  0.00000000000E+00 0. -1.
     999901    1    3    3    0    0 -0.11543910007E+00  0.42309233188E-01 -0.73391683994E-01  0.89157310206E+00  0.88000000000E+00 0. -1.
        -11    1    4    4    0    0  0.68452155281E-01 -0.40368634345E-01  0.37256291679E-01  0.87770248901E-01  0.51100000000E-03 0.  1.
         11    1    4    4    0    0  0.28618531831E-01 -0.12045493300E-01  0.28863983698E-01  0.42396992216E-01  0.51100000000E-03 0. -1.
</event>
<event>
 8    1  0.1093753E+005  0.1043930E+01  0.7957747E-01            NaN
         13   -1    0    0    0    0  0.00000000000E+00  0.00000000000E+00  0.74505805969E-08  0.10566000000E+00  0.10566000000E+00 0. -1.
     999900   -1    0    0    0    0 -0.00000000000E+00 -0.00000000000E+00 -0.74505805969E-08  0.93827000000E+00  0.93827000000E+00 0. -1.
     999902    2    1    2    0    0  0.12564195472E-01  0.19577012330E-02 -0.20401696758E-01  0.10198900160E+01  0.10196066515E+01 0.  0.
     999903    2    3    3    0    0  0.12736363399E+00  0.10527480389E-01 -0.26868472201E-01  0.13236865206E+00  0.21615321951E-01 0.  0.
         14    1    1    2    0    0 -0.12564195472E-01 -0.19577012330E-02  0.20401696758E-01  0.24039984039E-01  0.00000000000E+00 0. -1.
     999901    1    3    3    0    0 -0.11479943852E+00 -0.85697791560E-02  0.64667754433E-02  0.88752136390E+00  0.88000000000E+00 0.  1.
        -11    1    4    4    0    0  0.41646154445E-01  0.13664805241E-01 -0.86611028515E-02  0.44681147097E-01  0.51100000000E-03 0. -1.
         11    1    4    4    0    0  0.85717479545E-01 -0.31373248521E-02 -0.18207369350E-01  0.87687504962E-01  0.51100000000E-03 0.  1.
</event>
<event>
 8    1  0.1093753E+005  0.1043930E+01  0.7957747E-01            NaN
         13   -1    0    0    0    0  0.00000000000E+00  0.00000000000E+00  0.74505805969E-08  0.10566000000E+00  0.10566000000E+00 0. -1.
     999900   -1    0    0    0    0 -0.00000000000E+00 -0.00000000000E+00 -0.74505805969E-08  0.93827000000E+00  0.93827000000E+00 0.  1.
     999902    2    1    2    0    0 -0.29897785846E-02  0.22840904990E-03  0.23253019288E-01  0.10204844492E+01  0.10202150838E+01 0.  0.
     999903    2    3    3    0    0  0.96924570640E-01  0.21768282060E-01 -0.79239650311E-01  0.12865958374E+00  0.20152811471E-01 0.  0.
         14    1    1    2    0    0  0.29897785846E-02 -0.22840904990E-03 -0.23253019288E-01  0.23445550808E-01  0.00000000000E+00 0.  1.
     999901    1    3    3    0    0 -0.99914349224E-01 -0.21539873010E-01  0.10249266960E+00  0.89182486545E+00  0.88000000000E+00 0. -1.
        -11    1    4    4    0    0  0.24442668586E-01 -0.26105985116E-02 -0.23661303076E-01  0.34122978422E-01  0.51100000000E-03 0.  1.
         11    1    4    4    0    0  0.72481902054E-01  0.24378880571E-01 -0.55578347235E-01  0.94536605321E-01  0.51100000000E-03 0. -1.
</event>
<event>
 8    1  0.1093753E+005  0.1043930E+01  0.7957747E-01            NaN
         13   -1    0    0    0    0  0.00000000000E+00  0.00000000000E+00  0.74505805969E-08  0.10566000000E+00  0.10566000000E+00 0. -1.
     999900   -1    0    0    0    0 -0.00000000000E+00 -0.00000000000E+00 -0.74505805969E-08  0.93827000000E+00  0.93827000000E+00 0.  1.
     999902    2    1    2    0    0 -0.13187906917E-01  0.16121084091E-01 -0.13271363707E-01  0.10192330501E+01  0.10189337913E+01 0.  0.
     999903    2    3    3    0    0  0.26790055446E-01  0.27777136311E-01 -0.12363860334E+00  0.13136198476E+00  0.21913247907E-01 0.  0.
         14    1    1    2    0    0  0.13187906917E-01 -0.16121084091E-01  0.13271363707E-01  0.24696949928E-01  0.00000000000E+00 0. -1.
     999901    1    3    3    0    0 -0.39977962363E-01 -0.11656052220E-01  0.11036723963E+00  0.88787106531E+00  0.88000000000E+00 0. -1.
        -11    1    4    4    0    0 -0.35840847434E-02  0.58751171121E-02 -0.17626048981E-01  0.18928850684E-01  0.51100000000E-03 0.  1.
         11    1    4    4    0    0  0.30374140189E-01  0.21902019199E-01 -0.10601255436E+00  0.11243313408E+00  0.51100000000E-03 0. -1.
</event>
<event>
 8    1  0.1093753E+005  0.1043930E+01  0.7957747E-01            NaN
         13   -1    0    0    0    0  0.00000000000E+00  0.00000000000E+00  0.74505805969E-08  0.10566000000E+00  0.10566000000E+00 0.  1.
     999900   -1    0    0    0    0 -0.00000000000E+00 -0.00000000000E+00 -0.74505805969E-08  0.93827000000E+00  0.93827000000E+00 0. -1.
     999902    2    1    2    0    0 -0.14582890863E-01 -0.89303938215E-02 -0.15743774041E-01  0.10206860963E+01  0.10204213973E+01 0.  0.
     999903    2    3    3    0    0 -0.52064950906E-01  0.26954506464E-01  0.11402830604E+00  0.12965667831E+00  0.19263829308E-01 0.  0.
         14    1    1    2    0    0  0.14582890863E-01  0.89303938215E-02  0.15743774041E-01  0.23243903734E-01  0.00000000000E+00 0.  1.
     999901    1    3    3    0    0  0.37482060043E-01 -0.35884900285E-01 -0.12977208008E+00  0.89102941796E+00  0.88000000000E+00 0. -1.
        -11    1    4    4    0    0 -0.53398798710E-01  0.24253834958E-01  0.10876739030E+00  0.12357300080E+00  0.51100000000E-03 0.  1.
         11    1    4    4    0    0  0.13338478034E-02  0.27006715065E-02  0.52609157488E-02  0.60836775115E-02  0.51100000000E-03 0. -1.
</event>
<event>
 8    1  0.1093753E+005  0.1043930E+01  0.7957747E-01            NaN
         13   -1    0    0    0    0  0.00000000000E+00  0.00000000000E+00  0.74505805969E-08  0.10566000000E+00  0.10566000000E+00 0. -1.
     999900   -1    0    0    0    0 -0.00000000000E+00 -0.00000000000E+00 -0.74505805969E-08  0.93827000000E+00  0.93827000000E+00 0. -1.
     999902    2    1    2    0    0 -0.13951930835E-01 -0.16104059375E-01 -0.49706024393E-02  0.10220506949E+01  0.10218164801E+01 0.  0.
     999903    2    3    3    0    0  0.39623312641E-01  0.12084400355E+00 -0.16329382910E-01  0.12977601717E+00  0.20047089226E-01 0.  0.
         14    1    1    2    0    0  0.13951930835E-01  0.16104059375E-01  0.49706024393E-02  0.21879305085E-01  0.00000000000E+00 0.  1.
     999901    1    3    3    0    0 -0.53575243476E-01 -0.13694806293E+00  0.11358780470E-01  0.89227467775E+00  0.88000000000E+00 0. -1.
        -11    1    4    4    0    0  0.55430493560E-02  0.36236293795E-01  0.20856429696E-02  0.36720640133E-01  0.51100000000E-03 0.  1.
         11    1    4    4    0    0  0.34080263285E-01  0.84607709759E-01 -0.18415025879E-01  0.93055377036E-01  0.51100000000E-03 0. -1.
</event>
<event>
 8    1  0.1093753E+005  0.1043930E+01  0.7957747E-01            NaN
         13   -1    0    0    0    0  0.00000000000E+00  0.00000000000E+00  0.74505805969E-08  0.10566000000E+00  0.10566000000E+00 0.  1.
     999900   -1    0    0    0    0 -0.00000000000E+00 -0.00000000000E+00 -0.74505805969E-08  0.93827000000E+00  0.93827000000E+00 0.  1.
     999902    2    1    2    0    0  0.19974648656E-01  0.55725034719E-02 -0.89976260441E-02  0.10213247648E+01  0.10210745705E+01 0.  0.
     999903    2    3    3    0    0  0.84803616608E-01  0.46201982787E-01 -0.91026197722E-01  0.13420457213E+00  0.19970525925E-01 0.  0.
         14    1    1    2    0    0 -0.19974648656E-01 -0.55725034719E-02  0.89976260441E-02  0.22605235197E-01  0.00000000000E+00 0.  1.
     999901    1    3    3    0    0 -0.64828967953E-01 -0.40629479316E-01  0.82028571678E-01  0.88712019267E+00  0.88000000000E+00 0. -1.
        -11    1    4    4    0    0  0.19936531227E-01  0.20470498487E-01 -0.30886950985E-01  0.42080535260E-01  0.51100000000E-03 0.  1.
         11    1    4    4    0    0  0.64867085381E-01  0.25731484301E-01 -0.60139246738E-01  0.92124036871E-01  0.51100000000E-03 0. -1.
</event>
<event>
 8    1  0.1093753E+005  0.1043930E+01  0.7957747E-01            NaN
         13   -1    0    0    0    0  0.00000000000E+00  0.00000000000E+00  0.74505805969E-08  0.10566000000E+00  0.10566000000E+00 0. -1.
     999900   -1    0    0    0    0 -0.00000000000E+00 -0.00000000000E+00 -0.74505805969E-08  0.93827000000E+00  0.93827000000E+00 0.  1.
     999902    2    1    2    0    0 -0.45990009957E-02  0.93143683031E-02  0.21251755601E-01  0.10202752884E+01  0.10200010385E+01 0.  0.
     999903    2    3    3    0    0 -0.92438557185E-01 -0.57910332680E-01 -0.66134113812E-01  0.12905632635E+00  0.19578582084E-01 0.  0.
         14    1    1    2    0    0  0.45990009957E-02 -0.93143683031E-02 -0.21251755601E-01  0.23654711648E-01  0.00000000000E+00 0.  1.
     999901    1    3    3    0    0  0.87839556189E-01  0.67224700983E-01  0.87385869413E-01  0.89121896200E+00  0.88000000000E+00 0. -1.
        -11    1    4    4    0    0 -0.59701204615E-01 -0.38667291044E-01 -0.53595409283E-01  0.89062462611E-01  0.51100000000E-03 0. -1.
         11    1    4    4    0    0 -0.32737352570E-01 -0.19243041637E-01 -0.12538704528E-01  0.39993863741E-01  0.51100000000E-03 0.  1.
</event>
<event>
 8    1  0.1093753E+005  0.1043930E+01  0.7957747E-01            NaN
         13   -1    0    0    0    0  0.00000000000E+00  0.00000000000E+00  0.74505805969E-08  0.10566000000E+00  0.10566000000E+00 0. -1.
     999900   -1    0    0    0    0 -0.00000000000E+00 -0.00000000000E+00 -0.74505805969E-08  0.93827000000E+00  0.93827000000E+00 0.  1.
     999902    2    1    2    0    0  0.46159690975E-02 -0.11449592180E-01  0.19306581009E-01  0.10210139706E+01  0.10207567702E+01 0.  0.
     999903    2    3    3    0    0  0.85234853009E-01  0.21308386756E-01 -0.93310847135E-01  0.12957963500E+00  0.19103405426E-01 0.  0.
         14    1    1    2    0    0 -0.46159690975E-02  0.11449592180E-01 -0.19306581009E-01  0.22916029369E-01  0.00000000000E+00 0.  1.
     999901    1    3    3    0    0 -0.80618883911E-01 -0.32757978936E-01  0.11261742814E+00  0.89143433563E+00  0.88000000000E+00 0. -1.
        -11    1    4    4    0    0  0.30226929896E-02  0.45024492783E-03 -0.10849402899E-01  0.11283175868E-01  0.51100000000E-03 0. -1.
         11    1    4    4    0    0  0.82212160019E-01  0.20858141828E-01 -0.82461444236E-01  0.11829645913E+00  0.51100000000E-03 0.  1.
</event>
<event>
 8    1  0.1093753E+005  0.1043930E+01  0.7957747E-01            NaN
         13   -1    0    0    0    0  0.00000000000E+00  0.00000000000E+00  0.74505805969E-08  0.10566000000E+00  0.10566000000E+00 0.  1.
     999900   -1    0    0    0    0 -0.00000000000E+00 -0.00000000000E+00 -0.74505805969E-08  0.93827000000E+00  0.93827000000E+00 0. -1.
     999902    2    1    2    0    0 -0.12554577928E-01  0.16696348593E-01  0.11015242512E-01  0.10203138815E+01  0.10200405364E+01 0.  0.
     999903    2    3    3    0    0  0.21134985919E-01  0.12920697207E+00 -0.16568733625E-02  0.13242075192E+00  0.19783352802E-01 0.  0.
         14    1    1    2    0    0  0.12554577928E-01 -0.16696348593E-01 -0.11015242512E-01  0.23616118455E-01  0.00000000000E+00 0. -1.
     999901    1    3    3    0    0 -0.33689563847E-01 -0.11251062348E+00  0.12672115874E-01  0.88789312962E+00  0.88000000000E+00 0. -1.
        -11    1    4    4    0    0  0.23525130619E-01  0.10942903850E+00 -0.57436483975E-02  0.11207763762E+00  0.51100000000E-03 0.  1.
         11    1    4    4    0    0 -0.23901447000E-02  0.19777933578E-01  0.40867750350E-02  0.20343114302E-01  0.51100000000E-03 0. -1.
</event>
<event>
 8    1  0.1093753E+005  0.1043930E+01  0.7957747E-01            NaN
         13   -1    0    0    0    0  0.00000000000E+00  0.00000000000E+00  0.74505805969E-08  0.10566000000E+00  0.10566000000E+00 0.  1.
     999900   -1    0    0    0    0 -0.00000000000E+00 -0.00000000000E+00 -0.74505805969E-08  0.93827000000E+00  0.93827000000E+00 0.  1.
     999902    2    1    2    0    0 -0.19960484737E-01  0.12147193070E-01 -0.19639833553E-02  0.10204814930E+01  0.10202120589E+01 0.  0.
     999903    2    3    3    0    0 -0.73823657994E-01 -0.10128217270E+00  0.32289054744E-01  0.13090814971E+00  0.19655778212E-01 0.  0.
         14    1    1    2    0    0  0.19960484737E-01 -0.12147193070E-01  0.19639833553E-02  0.23448507011E-01  0.00000000000E+00 0.  1.
     999901    1    3    3    0    0  0.53863173256E-01  0.11342936577E+00 -0.34253038099E-01  0.88957334328E+00  0.88000000000E+00 0. -1.
        -11    1    4    4    0    0 -0.28536534547E-01 -0.27176862032E-01  0.42195995494E-02  0.39635612462E-01  0.51100000000E-03 0.  1.
         11    1    4    4    0    0 -0.45287123447E-01 -0.74105310672E-01  0.28069455195E-01  0.91272537248E-01  0.51100000000E-03 0. -1.
</event>
<event>
 8    1  0.1093753E+005  0.1043930E+01  0.7957747E-01            NaN
         13   -1    0    0    0    0  0.00000000000E+00  0.00000000000E+00  0.74505805969E-08  0.10566000000E+00  0.10566000000E+00 0.  1.
     999900   -1    0    0    0    0 -0.00000000000E+00 -0.00000000000E+00 -0.74505805969E-08  0.93827000000E+00  0.93827000000E+00 0. -1.
     999902    2    1    2    0    0 -0.84780316307E-02  0.96942825655E-02  0.19287363312E-01  0.10207382230E+01  0.10204747236E+01 0.  0.
     999903    2    3    3    0    0 -0.12475335442E+00  0.35761216767E-01  0.19398981559E-01  0.13270700276E+00  0.19813228732E-01 0.  0.
         14    1    1    2    0    0  0.84780316307E-02 -0.96942825655E-02 -0.19287363312E-01  0.23191776955E-01  0.00000000000E+00 0. -1.
     999901    1    3    3    0    0  0.11627532278E+00 -0.26066934202E-01 -0.11161824724E-03  0.88803122029E+00  0.88000000000E+00 0.  1.
        -11    1    4    4    0    0 -0.92568774041E-01  0.31529182845E-01  0.21661493681E-01  0.10016261143E+00  0.51100000000E-03 0.  1.
         11    1    4    4    0    0 -0.32184580375E-01  0.42320339226E-02 -0.22625121220E-02  0.32544391331E-01  0.51100000000E-03 0. -1.
</event>
<event>
 8    1  0.1093753E+005  0.1043930E+01  0.7957747E-01            NaN
         13   -1    0    0    0    0  0.00000000000E+00  0.00000000000E+00  0.74505805969E-08  0.10566000000E+00  0.10566000000E+00 0.  1.
     999900   -1    0    0    0    0 -0.00000000000E+00 -0.00000000000E+00 -0.74505805969E-08  0.93827000000E+00  0.93827000000E+00 0. -1.
     999902    2    1    2    0    0  0.36009189714E-03  0.23306267276E-01 -0.34978260637E-02  0.10203599650E+01  0.10200876981E+01 0.  0.
     999903    2    3    3    0    0  0.33915296141E-01  0.57575350599E-01 -0.11259380392E+00  0.13232716487E+00  0.19181907424E-01 0.  0.
         14    1    1    2    0    0 -0.36009189714E-03 -0.23306267276E-01  0.34978260637E-02  0.23570034953E-01  0.00000000000E+00 0.  1.
     999901    1    3    3    0    0 -0.33555204244E-01 -0.34269083322E-01  0.10909597786E+00  0.88803280018E+00  0.88000000000E+00 0.  1.
        -11    1    4    4    0    0  0.87884161264E-02  0.31729312854E-02 -0.19223305967E-01  0.21379905618E-01  0.51100000000E-03 0.  1.
         11    1    4    4    0    0  0.25126880015E-01  0.54402419313E-01 -0.93370497954E-01  0.11094725925E+00  0.51100000000E-03 0. -1.
</event>
<event>
 8    1  0.1093753E+005  0.1043930E+01  0.7957747E-01            NaN
         13   -1    0    0    0    0  0.00000000000E+00  0.00000000000E+00  0.74505805969E-08  0.10566000000E+00  0.10566000000E+00 0.  1.
     999900   -1    0    0    0    0 -0.00000000000E+00 -0.00000000000E+00 -0.74505805969E-08  0.93827000000E+00  0.93827000000E+00 0.  1.
     999902    2    1    2    0    0 -0.12655062316E-01  0.17238295209E-01  0.98597558491E-02  0.10203816623E+01  0.10201099022E+01 0.  0.
     999903    2    3    3    0    0 -0.40436016504E-01  0.10907945688E+00 -0.59851405423E-01  0.13242545480E+00  0.20516115730E-01 0.  0.
         14    1    1    2    0    0  0.12655062316E-01 -0.17238295209E-01 -0.98597558491E-02  0.23548337719E-01  0.00000000000E+00 0. -1.
     999901    1    3    3    0    0  0.27780954189E-01 -0.91841161671E-01  0.69711161272E-01  0.88795620748E+00  0.88000000000E+00 0. -1.
        -11    1    4    4    0    0 -0.16984748935E-01  0.52266549239E-01 -0.17112308383E-01  0.57561845740E-01  0.51100000000E-03 0.  1.
         11    1    4    4    0    0 -0.23451267569E-01  0.56812907641E-01 -0.42739097039E-01  0.74863609063E-01  0.51100000000E-03 0. -1.
</event>
<event>
 8    1  0.1093753E+005  0.1043930E+01  0.7957747E-01            NaN
         13   -1    0    0    0    0  0.00000000000E+00  0.00000000000E+00  0.74505805969E-08  0.10566000000E+00  0.10566000000E+00 0. -1.
     999900   -1    0    0    0    0 -0.00000000000E+00 -0.00000000000E+00 -0.74505805969E-08  0.93827000000E+00  0.93827000000E+00 0. -1.
     999902    2    1    2    0    0 -0.12284403869E-02  0.96715916770E-02  0.22286767474E-01  0.10196041135E+01  0.10193138866E+01 0.  0.
     999903    2    3    3    0    0  0.32446346887E-01 -0.11672061377E+00 -0.36096130097E-01  0.12802262890E+00  0.20258227897E-01 0.  0.
         14    1    1    2    0    0  0.12284403869E-02 -0.96715916770E-02 -0.22286767474E-01  0.24325886536E-01  0.00000000000E+00 0.  1.
     999901    1    3    3    0    0 -0.33674787274E-01  0.12639220544E+00  0.58382897571E-01  0.89158148457E+00  0.88000000000E+00 0.  1.
        -11    1    4    4    0    0  0.20571131470E-01 -0.84672545352E-01 -0.34762704398E-01  0.93815340560E-01  0.51100000000E-03 0.  1.
         11    1    4    4    0    0  0.11875215418E-01 -0.32048068413E-01 -0.13334256988E-02  0.34207288336E-01  0.51100000000E-03 0. -1.
</event>
<event>
 8    1  0.1093753E+005  0.1043930E+01  0.7957747E-01            NaN
         13   -1    0    0    0    0  0.00000000000E+00  0.00000000000E+00  0.74505805969E-08  0.10566000000E+00  0.10566000000E+00 0.  1.
     999900   -1    0    0    0    0 -0.00000000000E+00 -0.00000000000E+00 -0.74505805969E-08  0.93827000000E+00  0.93827000000E+00 0. -1.
     999902    2    1    2    0    0 -0.17030101247E-01  0.12978287888E-01 -0.14053657257E-01  0.10183181749E+01  0.10179960411E+01 0.  0.
     999903    2    3    3    0    0  0.75822850105E-02  0.73335871902E-01 -0.10656269231E+00  0.13107146222E+00  0.19709887470E-01 0.  0.
         14    1    1    2    0    0  0.17030101247E-01 -0.12978287888E-01  0.14053657257E-01  0.25611825146E-01  0.00000000000E+00 0. -1.
     999901    1    3    3    0    0 -0.24612386258E-01 -0.60357584014E-01  0.92509035051E-01  0.88724671263E+00  0.88000000000E+00 0.  1.
        -11    1    4    4    0    0  0.68767943412E-02  0.46194362997E-01 -0.50555963131E-01  0.68828598724E-01  0.51100000000E-03 0.  1.
         11    1    4    4    0    0  0.70549066921E-03  0.27141508906E-01 -0.56006729177E-01  0.62242863501E-01  0.51100000000E-03 0. -1.
</event>
<event>
 8    1  0.1093753E+005  0.1043930E+01  0.7957747E-01            NaN
         13   -1    0    0    0    0  0.00000000000E+00  0.00000000000E+00  0.74505805969E-08  0.10566000000E+00  0.10566000000E+00 0.  1.
     999900   -1    0    0    0    0 -0.00000000000E+00 -0.00000000000E+00 -0.74505805969E-08  0.93827000000E+00  0.93827000000E+00 0. -1.
     999902    2    1    2    0    0  0.68888624755E-02  0.20341058513E-01  0.11557598884E-01  0.10195416179E+01  0.10192498798E+01 0.  0.
     999903    2    3    3    0    0  0.11283764330E-03 -0.71349019994E-01  0.10630598740E+00  0.12969318021E+00  0.20704169828E-01 0.  0.
         14    1    1    2    0    0 -0.68888624755E-02 -0.20341058513E-01 -0.11557598884E-01  0.24388382062E-01  0.00000000000E+00 0.  1.
     999901    1    3    3    0    0  0.67760248322E-02  0.91690078506E-01 -0.94748388516E-01  0.88984843773E+00  0.88000000000E+00 0. -1.
        -11    1    4    4    0    0 -0.63011262677E-02 -0.30049614710E-01  0.59389548921E-01  0.66858531082E-01  0.51100000000E-03 0. -1.
         11    1    4    4    0    0  0.64139639110E-02 -0.41299405284E-01  0.46916438479E-01  0.62834649123E-01  0.51100000000E-03 0.  1.
</event>
<event>
 8    1  0.1093753E+005  0.1043930E+01  0.7957747E-01            NaN
         13   -1    0    0    0    0  0.00000000000E+00  0.00000000000E+00  0.74505805969E-08  0.10566000000E+00  0.10566000000E+00 0.  1.
     999900   -1    0    0    0    0 -0.00000000000E+00 -0.00000000000E+00 -0.74505805969E-08  0.93827000000E+00  0.93827000000E+00 0. -1.
     999902    2    1    2    0    0 -0.22264685545E-01 -0.72420052052E-02  0.13070901702E-02  0.10204806643E+01  0.10202112109E+01 0.  0.
     999903    2    3    3    0    0  0.98159719644E-01  0.79432244283E-01 -0.58080725587E-02  0.12803173663E+00  0.20336663580E-01 0.  0.
         14    1    1    2    0    0  0.22264685545E-01  0.72420052052E-02 -0.13070901702E-02  0.23449335738E-01  0.00000000000E+00 0.  1.
     999901    1    3    3    0    0 -0.12042440519E+00 -0.86674249488E-01  0.71151627288E-02  0.89244892763E+00  0.88000000000E+00 0.  1.
        -11    1    4    4    0    0  0.34626457114E-01  0.25931851919E-01  0.75103235253E-02  0.43910346806E-01  0.51100000000E-03 0.  1.
         11    1    4    4    0    0  0.63533262530E-01  0.53500392364E-01 -0.13318396084E-01  0.84121389825E-01  0.51100000000E-03 0. -1.
</event>
<event>
 8    1  0.1093753E+005  0.1043930E+01  0.7957747E-01            NaN
         13   -1    0    0    0    0  0.00000000000E+00  0.00000000000E+00  0.74505805969E-08  0.10566000000E+00  0.10566000000E+00 0. -1.
     999900   -1    0    0    0    0 -0.00000000000E+00 -0.00000000000E+00 -0.74505805969E-08  0.93827000000E+00  0.93827000000E+00 0. -1.
     999902    2    1    2    0    0  0.10578130924E-01 -0.16182573758E-01 -0.12753894936E-01  0.10207689468E+01  0.10205061531E+01 0.  0.
     999903    2    3    3    0    0 -0.68123923974E-01 -0.90622014029E-01  0.62788484854E-01  0.13091396155E+00  0.18516291560E-01 0.  0.
         14    1    1    2    0    0 -0.10578130924E-01  0.16182573758E-01  0.12753894936E-01  0.23161053157E-01  0.00000000000E+00 0. -1.
     999901    1    3    3    0    0  0.78702054898E-01  0.74439440271E-01 -0.75542379790E-01  0.88985498530E+00  0.88000000000E+00 0.  1.
        -11    1    4    4    0    0 -0.24588526867E-01 -0.48061883157E-01  0.29697079295E-01  0.61617512979E-01  0.51100000000E-03 0.  1.
         11    1    4    4    0    0 -0.43535397108E-01 -0.42560130872E-01  0.33091405560E-01  0.69296448568E-01  0.51100000000E-03 0. -1.
</event>
<event>
 8    1  0.1093753E+005  0.1043930E+01  0.7957747E-01            NaN
         13   -1    0    0    0    0  0.00000000000E+00  0.00000000000E+00  0.74505805969E-08  0.10566000000E+00  0.10566000000E+00 0.  1.
     999900   -1    0    0    0    0 -0.00000000000E+00 -0.00000000000E+00 -0.74505805969E-08  0.93827000000E+00  0.93827000000E+00 0.  1.
     999902    2    1    2    0    0 -0.14534325680E-01  0.18394921992E-01  0.48769626028E-02  0.10199841331E+01  0.10197030093E+01 0.  0.
     999903    2    3    3    0    0 -0.12254359186E-01 -0.57542236259E-01  0.11408298782E+00  0.12998547792E+00  0.20494342811E-01 0.  0.
         14    1    1    2    0    0  0.14534325680E-01 -0.18394921992E-01 -0.48769626028E-02  0.23945866914E-01  0.00000000000E+00 0. -1.
     999901    1    3    3    0    0 -0.22799664936E-02  0.75937158251E-01 -0.10920602522E+00  0.88999865516E+00  0.88000000000E+00 0.  1.
        -11    1    4    4    0    0  0.31625877845E-02 -0.22850250578E-01  0.31055486967E-01  0.38689020467E-01  0.51100000000E-03 0.  1.
         11    1    4    4    0    0 -0.15416946971E-01 -0.34691985681E-01  0.83027500855E-01  0.91296457454E-01  0.51100000000E-03 0. -1.
</event>
<event>
 8    1  0.1093753E+005  0.1043930E+01  0.7957747E-01            NaN
         13   -1    0    0    0    0  0.00000000000E+00  0.00000000000E+00  0.74505805969E-08  0.10566000000E+00  0.10566000000E+00 0.  1.
     999900   -1    0    0    0    0 -0.00000000000E+00 -0.00000000000E+00 -0.74505805969E-08  0.93827000000E+00  0.93827000000E+00 0. -1.
     999902    2    1    2    0    0  0.56045194384E-02  0.22627930557E-01  0.67249647292E-02  0.10196677035E+01  0.10193790103E+01 0.  0.
     999903    2    3    3    0    0 -0.11819954222E-01 -0.97541568521E-01  0.79886191928E-01  0.12832215552E+00  0.20753385965E-01 0.  0.
         14    1    1    2    0    0 -0.56045194384E-02 -0.22627930557E-01 -0.67249647292E-02  0.24262296471E-01  0.00000000000E+00 0. -1.
     999901    1    3    3    0    0  0.17424473660E-01  0.12016949908E+00 -0.73161227199E-01  0.89134554801E+00  0.88000000000E+00 0. -1.
        -11    1    4    4    0    0  0.25854871503E-02 -0.54905857761E-01  0.49908103409E-01  0.74245658911E-01  0.51100000000E-03 0.  1.
         11    1    4    4    0    0 -0.14405441372E-01 -0.42635710761E-01  0.29978088518E-01  0.54076496608E-01  0.51100000000E-03 0. -1.
</event>
<event>
 8    1  0.1093753E+005  0.1043930E+01  0.7957747E-01            NaN
         13   -1    0    0    0    0  0.00000000000E+00  0.00000000000E+00  0.74505805969E-08  0.10566000000E+00  0.10566000000E+00 0.  1.
     999900   -1    0    0    0    0 -0.00000000000E+00 -0.00000000000E+00 -0.74505805969E-08  0.93827000000E+00  0.93827000000E+00 0. -1.
     999902    2    1    2    0    0 -0.22685511322E-01 -0.67821262160E-02  0.96824678491E-03  0.10202325917E+01  0.10199573393E+01 0.  0.
     999903    2    3    3    0    0 -0.45878325764E-01  0.83299291341E-01 -0.87886292418E-01  0.13088018819E+00  0.19027100484E-01 0.  0.
         14    1    1    2    0    0  0.22685511322E-01  0.67821262160E-02 -0.96824678491E-03  0.23697408335E-01  0.00000000000E+00 0.  1.
     999901    1    3    3    0    0  0.23192814442E-01 -0.90081417557E-01  0.88854539203E-01  0.88935240348E+00  0.88000000000E+00 0.  1.
        -11    1    4    4    0    0 -0.38961820366E-01  0.52742168007E-01 -0.61833333715E-01  0.90129806456E-01  0.51100000000E-03 0. -1.
         11    1    4    4    0    0 -0.69165053983E-02  0.30557123333E-01 -0.26052958702E-01  0.40750381734E-01  0.51100000000E-03 0.  1.
</event>
<event>
 8    1  0.1093753E+005  0.1043930E+01  0.7957747E-01            NaN
         13   -1    0    0    0    0  0.00000000000E+00  0.00000000000E+00  0.74505805969E-08  0.10566000000E+00  0.10566000000E+00 0.  1.
     999900   -1    0    0    0    0 -0.00000000000E+00 -0.00000000000E+00 -0.74505805969E-08  0.93827000000E+00  0.93827000000E+00 0.  1.
     999902    2    1    2    0    0  0.19515203303E-01  0.11589737205E-01 -0.53325087102E-02  0.10206147514E+01  0.10203484062E+01 0.  0.
     999903    2    3    3    0    0 -0.12568690994E+00  0.18696444969E-01 -0.15478318466E-02  0.12867950556E+00  0.20230249195E-01 0.  0.
         14    1    1    2    0    0 -0.19515203303E-01 -0.11589737205E-01  0.53325087102E-02  0.23315248606E-01  0.00000000000E+00 0. -1.
     999901    1    3    3    0    0  0.14520211324E+00 -0.71067077647E-02 -0.37846768635E-02  0.89193524584E+00  0.88000000000E+00 0.  1.
        -11    1    4    4    0    0 -0.84159244802E-01  0.13959239668E-01  0.83660040669E-02  0.85719834360E-01  0.51100000000E-03 0.  1.
         11    1    4    4    0    0 -0.41527665138E-01  0.47372053017E-02 -0.99138359135E-02  0.42959671198E-01  0.51100000000E-03 0. -1.
</event>
<event>
 8    1  0.1093753E+005  0.1043930E+01  0.7957747E-01            NaN
         13   -1    0    0    0    0  0.00000000000E+00  0.00000000000E+00  0.74505805969E-08  0.10566000000E+00  0.10566000000E+00 0.  1.
     999900   -1    0    0    0    0 -0.00000000000E+00 -0.00000000000E+00 -0.74505805969E-08  0.93827000000E+00  0.93827000000E+00 0.  1.
     999902    2    1    2    0    0 -0.94125500224E-02 -0.14886222873E-01  0.14786946049E-01  0.10209332719E+01  0.10206742361E+01 0.  0.
     999903    2    3    3    0    0  0.11494748678E+00  0.46233019819E-01 -0.29297215511E-01  0.12900031822E+00  0.20792749342E-01 0.  0.
         14    1    1    2    0    0  0.94125500224E-02  0.14886222873E-01 -0.14786946049E-01  0.22996728089E-01  0.00000000000E+00 0. -1.
     999901    1    3    3    0    0 -0.12436003680E+00 -0.61119242692E-01  0.44084161560E-01  0.89193295369E+00  0.88000000000E+00 0. -1.
        -11    1    4    4    0    0  0.77167328058E-01  0.26124191718E-01 -0.10113538589E-01  0.82096374441E-01  0.51100000000E-03 0. -1.
         11    1    4    4    0    0  0.37780158722E-01  0.20108828101E-01 -0.19183676923E-01  0.46903943778E-01  0.51100000000E-03 0.  1.
</event>
<event>
 8    1  0.1093753E+005  0.1043930E+01  0.7957747E-01            NaN
         13   -1    0    0    0    0  0.00000000000E+00  0.00000000000E+00  0.74505805969E-08  0.10566000000E+00  0.10566000000E+00 0.  1.
     999900   -1    0    0    0    0 -0.00000000000E+00 -0.00000000000E+00 -0.74505805969E-08  0.93827000000E+00  0.93827000000E+00 0. -1.
     999902    2    1    2    0    0 -0.11577277940E-01 -0.18519806249E-01 -0.96470855990E-02  0.10200535922E+01  0.10197741162E+01 0.  0.
     999903    2    3    3    0    0  0.27668485450E-01  0.11731718856E+00  0.36665584779E-01  0.12756449842E+00  0.19986703892E-01 0.  0.
         14    1    1    2    0    0  0.11577277940E-01  0.18519806249E-01  0.96470855990E-02  0.23876407782E-01  0.00000000000E+00 0.  1.
     999901    1    3    3    0    0 -0.39245763390E-01 -0.13583699481E+00 -0.46312670378E-01  0.89248909379E+00  0.88000000000E+00 0. -1.
        -11    1    4    4    0    0  0.14992151524E-01  0.26497660313E-01  0.79002780215E-02  0.31457369934E-01  0.51100000000E-03 0.  1.
         11    1    4    4    0    0  0.12676333926E-01  0.90819528247E-01  0.28765306758E-01  0.96107128491E-01  0.51100000000E-03 0. -1.
</event>
<event>
 8    1  0.1093753E+005  0.1043930E+01  0.7957747E-01            NaN
         13   -1    0    0    0    0  0.00000000000E+00  0.00000000000E+00  0.74505805969E-08  0.10566000000E+00  0.10566000000E+00 0.  1.
     999900   -1    0    0    0    0 -0.00000000000E+00 -0.00000000000E+00 -0.74505805969E-08  0.93827000000E+00  0.93827000000E+00 0. -1.
     999902    2    1    2    0    0  0.19130521629E-01 -0.67579283155E-02  0.10984917858E-01  0.10208580501E+01  0.10205972974E+01 0.  0.
     999903    2    3    3    0    0 -0.12234981253E+00 -0.33577363536E-01 -0.92441452632E-02  0.12892465455E+00  0.20957012245E-01 0.  0.
         14    1    1    2    0    0 -0.19130521629E-01  0.67579283155E-02 -0.10984917858E-01  0.23071949924E-01  0.00000000000E+00 0. -1.
     999901    1    3    3    0    0  0.14148033416E+00  0.26819435221E-01  0.20229063121E-01  0.89193339553E+00  0.88000000000E+00 0. -1.
        -11    1    4    4    0    0 -0.99748805893E-01 -0.25313124751E-01  0.61528528026E-03  0.10291364467E+00  0.51100000000E-03 0. -1.
         11    1    4    4    0    0 -0.22601006633E-01 -0.82642387852E-02 -0.98594305435E-02  0.26011009884E-01  0.51100000000E-03 0.  1.
</event>
<event>
 8    1  0.1093753E+005  0.1043930E+01  0.7957747E-01            NaN
         13   -1    0    0    0    0  0.00000000000E+00  0.00000000000E+00  0.74505805969E-08  0.10566000000E+00  0.10566000000E+00 0.  1.
     999900   -1    0    0    0    0 -0.00000000000E+00 -0.00000000000E+00 -0.74505805969E-08  0.93827000000E+00  0.93827000000E+00 0. -1.
     999902    2    1    2    0    0 -0.16564759193E-02  0.21109214785E-01 -0.72345973849E-02  0.10215540696E+01  0.10213089811E+01 0.  0.
     999903    2    3    3    0    0 -0.46498818535E-01  0.11684696564E+00  0.40246764220E-01  0.13395560616E+00  0.22559895539E-01 0.  0.
         14    1    1    2    0    0  0.16564759193E-02 -0.21109214785E-01  0.72345973849E-02  0.22375930386E-01  0.00000000000E+00 0.  1.
     999901    1    3    3    0    0  0.44842342615E-01 -0.95737750854E-01 -0.47481361605E-01  0.88759846346E+00  0.88000000000E+00 0. -1.
        -11    1    4    4    0    0 -0.27306742431E-03  0.11767166549E-01  0.94342181318E-02  0.15093255685E-01  0.51100000000E-03 0.  1.
         11    1    4    4    0    0 -0.46225751110E-01  0.10507979909E+00  0.30812546089E-01  0.11886235047E+00  0.51100000000E-03 0. -1.
</event>
<event>
 8    1  0.1093753E+005  0.1043930E+01  0.7957747E-01            NaN
         13   -1    0    0    0    0  0.00000000000E+00  0.00000000000E+00  0.74505805969E-08  0.10566000000E+00  0.10566000000E+00 0. -1.
     999900   -1    0    0    0    0 -0.00000000000E+00 -0.00000000000E+00 -0.74505805969E-08  0.93827000000E+00  0.93827000000E+00 0. -1.
     999902    2    1    2    0    0 -0.69897616647E-02  0.20808952094E-01  0.93799939752E-02  0.10200583946E+01  0.10197790324E+01 0.  0.
     999903    2    3    3    0    0 -0.60890567408E-01 -0.10472104067E+00  0.39837762849E-01  0.12899680775E+00  0.19467190459E-01 0.  0.
         14    1    1    2    0    0  0.69897616647E-02 -0.20808952094E-01 -0.93799939752E-02  0.23871605358E-01  0.00000000000E+00 0.  1.
     999901    1    3    3    0    0  0.53900805744E-01  0.12552999276E+00 -0.30457768874E-01  0.89106158689E+00  0.88000000000E+00 0.  1.
        -11    1    4    4    0    0 -0.27517043104E-01 -0.53888159076E-01  0.10257406942E-01  0.61372606821E-01  0.51100000000E-03 0.  1.
         11    1    4    4    0    0 -0.33373524304E-01 -0.50832881591E-01  0.29580355908E-01  0.67624200934E-01  0.51100000000E-03 0. -1.
</event>
<event>
 8    1  0.1093753E+005  0.1043930E+01  0.7957747E-01            NaN
         13   -1    0    0    0    0  0.00000000000E+00  0.00000000000E+00  0.74505805969E-08  0.10566000000E+00  0.10566000000E+00 0. -1.
     999900   -1    0    0    0    0 -0.00000000000E+00 -0.00000000000E+00 -0.74505805969E-08  0.93827000000E+00  0.93827000000E+00 0. -1.
     999902    2    1    2    0    0 -0.10947125794E-01  0.17488706515E-01 -0.11699408633E-01  0.10202114296E+01  0.10199356796E+01 0.  0.
     999903    2    3    3    0    0 -0.37845712846E-01 -0.81151234553E-01 -0.92905281245E-01  0.13057792884E+00  0.20034554300E-01 0.  0.
         14    1    1    2    0    0  0.10947125794E-01 -0.17488706515E-01  0.11699408633E-01  0.23718570384E-01  0.00000000000E+00 0. -1.
     999901    1    3    3    0    0  0.26898587052E-01  0.98639941068E-01  0.81205872612E-01  0.88963350078E+00  0.88000000000E+00 0.  1.
        -11    1    4    4    0    0 -0.15793255498E-01 -0.56510744273E-01 -0.58679851875E-01  0.82984801467E-01  0.51100000000E-03 0. -1.
         11    1    4    4    0    0 -0.22052457348E-01 -0.24640490280E-01 -0.34225429370E-01  0.47593127371E-01  0.51100000000E-03 0.  1.
</event>
<event>
 8    1  0.1093753E+005  0.1043930E+01  0.7957747E-01            NaN
         13   -1    0    0    0    0  0.00000000000E+00  0.00000000000E+00  0.74505805969E-08  0.10566000000E+00  0.10566000000E+00 0.  1.
     999900   -1    0    0    0    0 -0.00000000000E+00 -0.00000000000E+00 -0.74505805969E-08  0.93827000000E+00  0.93827000000E+00 0. -1.
     999902    2    1    2    0    0  0.11899199151E-03  0.23622960664E-01 -0.22188538259E-02  0.10202027637E+01  0.10199268098E+01 0.  0.
     999903    2    3    3    0    0  0.70547200964E-01 -0.10373020598E+00 -0.16987635252E-01  0.12812817121E+00  0.19783460549E-01 0.  0.
         14    1    1    2    0    0 -0.11899199151E-03 -0.23622960664E-01  0.22188538259E-02  0.23727236289E-01  0.00000000000E+00 0.  1.
     999901    1    3    3    0    0 -0.70428208973E-01  0.12735316664E+00  0.14768781426E-01  0.89207459250E+00  0.88000000000E+00 0. -1.
        -11    1    4    4    0    0  0.72220213163E-02 -0.13546669941E-01  0.41750454983E-02  0.15917348532E-01  0.51100000000E-03 0.  1.
         11    1    4    4    0    0  0.63325179648E-01 -0.90183536037E-01 -0.21162680750E-01  0.11221082268E+00  0.51100000000E-03 0. -1.
</event>
<event>
 8    1  0.1093753E+005  0.1043930E+01  0.7957747E-01            NaN
         13   -1    0    0    0    0  0.00000000000E+00  0.00000000000E+00  0.74505805969E-08  0.10566000000E+00  0.10566000000E+00 0.  1.
     999900   -1    0    0    0    0 -0.00000000000E+00 -0.00000000000E+00 -0.74505805969E-08  0.93827000000E+00  0.93827000000E+00 0.  1.
     999902    2    1    2    0    0  0.85479889438E-02  0.17413928770E-02 -0.21075399579E-01  0.10211205057E+01  0.10208657179E+01 0.  0.
     999903    2    3    3    0    0  0.57867303402E-01  0.11409624796E+00 -0.28787386093E-01  0.13257366786E+00  0.19506030148E-01 0.  0.
         14    1    1    2    0    0 -0.85479889438E-02 -0.17413928770E-02  0.21075399579E-01  0.22809494329E-01  0.00000000000E+00 0.  1.
     999901    1    3    3    0    0 -0.49319314459E-01 -0.11235485508E+00  0.77119865141E-02  0.88854683781E+00  0.88000000000E+00 0. -1.
        -11    1    4    4    0    0  0.43518768467E-01  0.66954874786E-01 -0.21979612088E-01  0.82826342036E-01  0.51100000000E-03 0. -1.
         11    1    4    4    0    0  0.14348534935E-01  0.47141373171E-01 -0.68077740050E-02  0.49747325829E-01  0.51100000000E-03 0.  1.
</event>
<event>
 8    1  0.1093753E+005  0.1043930E+01  0.7957747E-01            NaN
         13   -1    0    0    0    0  0.00000000000E+00  0.00000000000E+00  0.74505805969E-08  0.10566000000E+00  0.10566000000E+00 0. -1.
     999900   -1    0    0    0    0 -0.00000000000E+00 -0.00000000000E+00 -0.74505805969E-08  0.93827000000E+00  0.93827000000E+00 0. -1.
     999902    2    1    2    0    0  0.10361745379E-01 -0.16971394972E-01  0.13381975226E-01  0.10199618696E+01  0.10196802166E+01 0.  0.
     999903    2    3    3    0    0 -0.47489960026E-01 -0.97570986223E-01  0.72950130523E-01  0.13238568747E+00  0.20708815724E-01 0.  0.
         14    1    1    2    0    0 -0.10361745379E-01  0.16971394972E-01 -0.13381975226E-01  0.23968130414E-01  0.00000000000E+00 0.  1.
     999901    1    3    3    0    0  0.57851705405E-01  0.80599591252E-01 -0.59568155298E-01  0.88757618211E+00  0.88000000000E+00 0. -1.
        -11    1    4    4    0    0 -0.38578546179E-01 -0.59327309575E-01  0.41228716737E-01  0.81903004166E-01  0.51100000000E-03 0.  1.
         11    1    4    4    0    0 -0.89114138471E-02 -0.38243676648E-01  0.31721413786E-01  0.50482683307E-01  0.51100000000E-03 0. -1.
</event>
<event>
 8    1  0.1093753E+005  0.1043930E+01  0.7957747E-01            NaN
         13   -1    0    0    0    0  0.00000000000E+00  0.00000000000E+00  0.74505805969E-08  0.10566000000E+00  0.10566000000E+00 0.  1.
     999900   -1    0    0    0    0 -0.00000000000E+00 -0.00000000000E+00 -0.74505805969E-08  0.93827000000E+00  0.93827000000E+00 0. -1.
     999902    2    1    2    0    0  0.20290918137E-01  0.66417539374E-02 -0.98736639898E-02  0.10204071708E+01  0.10201360060E+01 0.  0.
     999903    2    3    3    0    0  0.13069051605E+00 -0.38138317417E-02 -0.17530587417E-01  0.13341448818E+00  0.19938602368E-01 0.  0.
         14    1    1    2    0    0 -0.20290918137E-01 -0.66417539374E-02  0.98736639898E-02  0.23522829226E-01  0.00000000000E+00 0.  1.
     999901    1    3    3    0    0 -0.11039959791E+00  0.10455585679E-01  0.76569234274E-02  0.88699268259E+00  0.88000000000E+00 0.  1.
        -11    1    4    4    0    0  0.49497678614E-01 -0.89286766769E-02 -0.53065500971E-03  0.50301930093E-01  0.51100000000E-03 0.  1.
         11    1    4    4    0    0  0.81192837436E-01  0.51148449352E-02 -0.16999932407E-01  0.83112558092E-01  0.51100000000E-03 0. -1.
</event>
<event>
 8    1  0.1093753E+005  0.1043930E+01  0.7957747E-01            NaN
         13   -1    0    0    0    0  0.00000000000E+00  0.00000000000E+00  0.74505805969E-08  0.10566000000E+00  0.10566000000E+00 0.  1.
     999900   -1    0    0    0    0 -0.00000000000E+00 -0.00000000000E+00 -0.74505805969E-08  0.93827000000E+00  0.93827000000E+00 0.  1.
     999902    2    1    2    0    0 -0.28325496728E-02  0.21566427967E-01  0.57858555505E-02  0.10214219953E+01  0.10211739725E+01 0.  0.
     999903    2    3    3    0    0  0.66457753713E-01  0.67697588062E-01 -0.89986753324E-01  0.13232041350E+00  0.20284959887E-01 0.  0.
         14    1    1    2    0    0  0.28325496728E-02 -0.21566427967E-01 -0.57858555505E-02  0.22508004739E-01  0.00000000000E+00 0.  1.
     999901    1    3    3    0    0 -0.69290303386E-01 -0.46131160095E-01  0.95772608874E-01  0.88910158176E+00  0.88000000000E+00 0. -1.
        -11    1    4    4    0    0  0.76235769291E-02  0.17800342685E-01 -0.23691316353E-01  0.30602462588E-01  0.51100000000E-03 0.  1.
         11    1    4    4    0    0  0.58834176784E-01  0.49897245377E-01 -0.66295436971E-01  0.10171795091E+00  0.51100000000E-03 0. -1.
</event>
<event>
 8    1  0.1093753E+005  0.1043930E+01  0.7957747E-01            NaN
         13   -1    0    0    0    0  0.00000000000E+00  0.00000000000E+00  0.74505805969E-08  0.10566000000E+00  0.10566000000E+00 0.  1.
     999900   -1    0    0    0    0 -0.00000000000E+00 -0.00000000000E+00 -0.74505805969E-08  0.93827000000E+00  0.93827000000E+00 0. -1.
     999902    2    1    2    0    0 -0.19044477209E-01  0.35020967430E-02 -0.12928744414E-01  0.10206467608E+01  0.10203811549E+01 0.  0.
     999903    2    3    3    0    0 -0.79514697712E-01  0.79604971045E-02  0.10231801003E+00  0.13106352172E+00  0.17964266875E-01 0.  0.
         14    1    1    2    0    0  0.19044477209E-01 -0.35020967430E-02  0.12928744414E-01  0.23283239162E-01  0.00000000000E+00 0.  1.
     999901    1    3    3    0    0  0.60470220503E-01 -0.44584003614E-02 -0.11524675444E+00  0.88958323911E+00  0.88000000000E+00 0. -1.
        -11    1    4    4    0    0 -0.53053764277E-01  0.12715768833E-01  0.61830313927E-01  0.82459938894E-01  0.51100000000E-03 0. -1.
         11    1    4    4    0    0 -0.26460933435E-01 -0.47552717289E-02  0.40487696101E-01  0.48603582831E-01  0.51100000000E-03 0.  1.
</event>
<event>
 8    1  0.1093753E+005  0.1043930E+01  0.7957747E-01            NaN
         13   -1    0    0    0    0  0.00000000000E+00  0.00000000000E+00  0.74505805969E-08  0.10566000000E+00  0.10566000000E+00 0.  1.
     999900   -1    0    0    0    0 -0.00000000000E+00 -0.00000000000E+00 -0.74505805969E-08  0.93827000000E+00  0.93827000000E+00 0.  1.
     999902    2    1    2    0    0  0.86802626441E-02  0.21988131137E-01  0.46116978828E-02  0.10198448878E+01  0.10195604458E+01 0.  0.
     999903    2    3    3    0    0 -0.60776502316E-01  0.11144913672E+00  0.29177358008E-01  0.13224645083E+00  0.22871646815E-01 0.  0.
         14    1    1    2    0    0 -0.86802626441E-02 -0.21988131137E-01 -0.46116978828E-02  0.24085112161E-01  0.00000000000E+00 0.  1.
     999901    1    3    3    0    0  0.69456764960E-01 -0.89461005583E-01 -0.24565660125E-01  0.88759843701E+00  0.88000000000E+00 0.  1.
        -11    1    4    4    0    0 -0.21244217412E-01  0.36978347169E-01  0.20991226420E-01  0.47535330444E-01  0.51100000000E-03 0.  1.
         11    1    4    4    0    0 -0.39532284904E-01  0.74470789551E-01  0.81861315878E-02  0.84711120388E-01  0.51100000000E-03 0. -1.
</event>
<event>
 8    1  0.1093753E+005  0.1043930E+01  0.7957747E-01            NaN
         13   -1    0    0    0    0  0.00000000000E+00  0.00000000000E+00  0.74505805969E-08  0.10566000000E+00  0.10566000000E+00 0. -1.
     999900   -1    0    0    0    0 -0.00000000000E+00 -0.00000000000E+00 -0.74505805969E-08  0.93827000000E+00  0.93827000000E+00 0.  1.
     999902    2    1    2    0    0 -0.14543546647E-02 -0.11958301906E-01  0.20198054232E-01  0.10204123996E+01  0.10201413568E+01 0.  0.
     999903    2    3    3    0    0  0.58112079007E-01  0.73685836628E-01  0.89891703552E-01  0.13151404592E+00  0.20219042047E-01 0.  0.
         14    1    1    2    0    0  0.14543546647E-02  0.11958301906E-01 -0.20198054232E-01  0.23517600360E-01  0.00000000000E+00 0.  1.
     999901    1    3    3    0    0 -0.59566433672E-01 -0.85644138534E-01 -0.69693649320E-01  0.88889835372E+00  0.88000000000E+00 0.  1.
        -11    1    4    4    0    0  0.35487696399E-01  0.58708016615E-01  0.68644171869E-01  0.97047881292E-01  0.51100000000E-03 0. -1.
         11    1    4    4    0    0  0.22624382608E-01  0.14977820013E-01  0.21247531683E-01  0.34466164631E-01  0.51100000000E-03 0.  1.
</event>
<event>
 8    1  0.1093753E+005  0.1043930E+01  0.7957747E-01            NaN
         13   -1    0    0    0    0  0.00000000000E+00  0.00000000000E+00  0.74505805969E-08  0.10566000000E+00  0.10566000000E+00 0. -1.
     999900   -1    0    0    0    0 -0.00000000000E+00 -0.00000000000E+00 -0.74505805969E-08  0.93827000000E+00  0.93827000000E+00 0.  1.
     999902    2    1    2    0    0  0.94357169034E-02  0.11951712470E-01  0.17228419668E-01  0.10209366395E+01  0.10206776804E+01 0.  0.
     999903    2    3    3    0    0 -0.35856046403E-01  0.11151823221E+00  0.59526726525E-01  0.13315627111E+00  0.21568244853E-01 0.  0.
         14    1    1    2    0    0 -0.94357169034E-02 -0.11951712470E-01 -0.17228419668E-01  0.22993360536E-01  0.00000000000E+00 0.  1.
     999901    1    3    3    0    0  0.45291763306E-01 -0.99566519738E-01 -0.42298306857E-01  0.88778036836E+00  0.88000000000E+00 0. -1.
        -11    1    4    4    0    0 -0.27397682156E-01  0.50650291930E-01  0.31032379779E-01  0.65416777480E-01  0.51100000000E-03 0.  1.
         11    1    4    4    0    0 -0.84583642464E-02  0.60867940278E-01  0.28494346746E-01  0.67739493628E-01  0.51100000000E-03 0. -1.
</event>
<event>
 8    1  0.1093753E+005  0.1043930E+01  0.7957747E-01            NaN
         13   -1    0    0    0    0  0.00000000000E+00  0.00000000000E+00  0.74505805969E-08  0.10566000000E+00  0.10566000000E+00 0. -1.
     999900   -1    0    0    0    0 -0.00000000000E+00 -0.00000000000E+00 -0.74505805969E-08  0.93827000000E+00  0.93827000000E+00 0. -1.
     999902    2    1    2    0    0 -0.14091616601E-01  0.18034801848E-01  0.65625977944E-02  0.10201204342E+01  0.10198425392E+01 0.  0.
     999903    2    3    3    0    0  0.12630154904E+00  0.15677706222E-01 -0.48567474726E-02  0.12891552039E+00  0.19943711756E-01 0.  0.
         14    1    1    2    0    0  0.14091616601E-01 -0.18034801848E-01 -0.65625977944E-02  0.23809565849E-01  0.00000000000E+00 0.  1.
     999901    1    3    3    0    0 -0.14039316565E+00  0.23570956256E-02  0.11419345267E-01  0.89120491376E+00  0.88000000000E+00 0. -1.
        -11    1    4    4    0    0  0.34496203270E-01  0.13334566787E-01 -0.13460455342E-02  0.37011777464E-01  0.51100000000E-03 0.  1.
         11    1    4    4    0    0  0.91805345775E-01  0.23431394352E-02 -0.35107019383E-02  0.91903742929E-01  0.51100000000E-03 0. -1.
</event>
<event>
 8    1  0.1093753E+005  0.1043930E+01  0.7957747E-01            NaN
         13   -1    0    0    0    0  0.00000000000E+00  0.00000000000E+00  0.74505805969E-08  0.10566000000E+00  0.10566000000E+00 0.  1.
     999900   -1    0    0    0    0 -0.00000000000E+00 -0.00000000000E+00 -0.74505805969E-08  0.93827000000E+00  0.93827000000E+00 0.  1.
     999902    2    1    2    0    0  0.50596002999E-02 -0.23051890791E-01  0.77516235529E-02  0.10190889676E+01  0.10187861635E+01 0.  0.
     999903    2    3    3    0    0  0.11464954566E+00  0.14673390398E-02  0.58059670814E-01  0.13052718110E+00  0.22797987349E-01 0.  0.
         14    1    1    2    0    0 -0.50596002999E-02  0.23051890791E-01 -0.77516235529E-02  0.24841032425E-01  0.00000000000E+00 0. -1.
     999901    1    3    3    0    0 -0.10958994536E+00 -0.24519229831E-01 -0.50308047261E-01  0.88856178647E+00  0.88000000000E+00 0. -1.
        -11    1    4    4    0    0  0.10338479006E+00 -0.47249424782E-02  0.55405586595E-01  0.11739156718E+00  0.51100000000E-03 0.  1.
         11    1    4    4    0    0  0.11264755599E-01  0.61922815179E-02  0.26540842184E-02  0.13135613923E-01  0.51100000000E-03 0. -1.
</event>
<event>
 8    1  0.1093753E+005  0.1043930E+01  0.7957747E-01            NaN
         13   -1    0    0    0    0  0.00000000000E+00  0.00000000000E+00  0.74505805969E-08  0.10566000000E+00  0.10566000000E+00 0.  1.
     999900   -1    0    0    0    0 -0.00000000000E+00 -0.00000000000E+00 -0.74505805969E-08  0.93827000000E+00  0.93827000000E+00 0. -1.
     999902    2    1    2    0    0  0.19359506518E-01 -0.85605182523E-02  0.11509393004E-01  0.10198356211E+01  0.10195509576E+01 0.  0.
     999903    2    3    3    0    0 -0.60054134514E-01  0.10524269503E+00 -0.35246089387E-01  0.12773485729E+00  0.19783402646E-01 0.  0.
         14    1    1    2    0    0 -0.19359506518E-01  0.85605182523E-02 -0.11509393004E-01  0.24094378861E-01  0.00000000000E+00 0. -1.
     999901    1    3    3    0    0  0.79413641031E-01 -0.11380321328E+00  0.46755482392E-01  0.89210076385E+00  0.88000000000E+00 0. -1.
        -11    1    4    4    0    0 -0.31530974728E-01  0.42783106349E-01 -0.23321969671E-01  0.58041122891E-01  0.51100000000E-03 0. -1.
         11    1    4    4    0    0 -0.28523159786E-01  0.62459588677E-01 -0.11924119717E-01  0.69693734395E-01  0.51100000000E-03 0.  1.
</event>
<event>
 8    1  0.1093753E+005  0.1043930E+01  0.7957747E-01            NaN
         13   -1    0    0    0    0  0.00000000000E+00  0.00000000000E+00  0.74505805969E-08  0.10566000000E+00  0.10566000000E+00 0.  1.
     999900   -1    0    0    0    0 -0.00000000000E+00 -0.00000000000E+00 -0.74505805969E-08  0.93827000000E+00  0.93827000000E+00 0. -1.
     999902    2    1    2    0    0 -0.59511238830E-02  0.22695697629E-01 -0.83955199562E-03  0.10204520228E+01  0.10201819031E+01 0.  0.
     999903    2    3    3    0    0 -0.89419746821E-01  0.30332717345E-01 -0.89793176110E-01  0.13200501687E+00  0.21131614697E-01 0.  0.
         14    1    1    2    0    0  0.59511238830E-02 -0.22695697629E-01  0.83955199562E-03  0.23477977210E-01  0.00000000000E+00 0. -1.
     999901    1    3    3    0    0  0.83468622938E-01 -0.76370197156E-02  0.88953624114E-01  0.88844700592E+00  0.88000000000E+00 0.  1.
        -11    1    4    4    0    0 -0.57833988650E-01  0.12093948483E-01 -0.65316372951E-01  0.88076804720E-01  0.51100000000E-03 0.  1.
         11    1    4    4    0    0 -0.31585758171E-01  0.18238768861E-01 -0.24476803159E-01  0.43928212150E-01  0.51100000000E-03 0. -1.
</event>
<event>
 8    1  0.1093753E+005  0.1043930E+01  0.7957747E-01            NaN
         13   -1    0    0    0    0  0.00000000000E+00  0.00000000000E+00  0.74505805969E-08  0.10566000000E+00  0.10566000000E+00 0. -1.
     999900   -1    0    0    0    0 -0.00000000000E+00 -0.00000000000E+00 -0.74505805969E-08  0.93827000000E+00  0.93827000000E+00 0. -1.
     999902    2    1    2    0    0  0.81443602790E-02 -0.26316944924E-02  0.23279791828E-01  0.10191266710E+01  0.10188247968E+01 0.  0.
     999903    2    3    3    0    0  0.96779801181E-01  0.28375324058E-01  0.83004126940E-01  0.13211783636E+00  0.19848140054E-01 0.  0.
         14    1    1    2    0    0 -0.81443602790E-02  0.26316944924E-02 -0.23279791828E-01  0.24803328966E-01  0.00000000000E+00 0.  1.
     999901    1    3    3    0    0 -0.88635440902E-01 -0.31007018551E-01 -0.59724335112E-01  0.88700883467E+00  0.88000000000E+00 0. -1.
        -11    1    4    4    0    0  0.48835586209E-01  0.23812305150E-01  0.39031835843E-01  0.66900565671E-01  0.51100000000E-03 0. -1.
         11    1    4    4    0    0  0.47944214973E-01  0.45630189088E-02  0.43972291097E-01  0.65217270690E-01  0.51100000000E-03 0.  1.
</event>
<event>
 8    1  0.1093753E+005  0.1043930E+01  0.7957747E-01            NaN
         13   -1    0    0    0    0  0.00000000000E+00  0.00000000000E+00  0.74505805969E-08  0.10566000000E+00  0.10566000000E+00 0. -1.
     999900   -1    0    0    0    0 -0.00000000000E+00 -0.00000000000E+00 -0.74505805969E-08  0.93827000000E+00  0.93827000000E+00 0. -1.
     999902    2    1    2    0    0  0.98411189139E-02  0.23489706838E-01 -0.61855687070E-03  0.10184545891E+01  0.10181359209E+01 0.  0.
     999903    2    3    3    0    0  0.67691971572E-02 -0.11660576411E+00  0.43500007600E-01  0.12627600527E+00  0.20264564946E-01 0.  0.
         14    1    1    2    0    0 -0.98411189139E-02 -0.23489706838E-01  0.61855687070E-03  0.25475410917E-01  0.00000000000E+00 0.  1.
     999901    1    3    3    0    0  0.30719217567E-02  0.14009547095E+00 -0.44118564470E-01  0.89217858381E+00  0.88000000000E+00 0. -1.
        -11    1    4    4    0    0  0.49244002095E-02 -0.62158695500E-01  0.33837806380E-01  0.70945129538E-01  0.51100000000E-03 0. -1.
         11    1    4    4    0    0  0.18447969477E-02 -0.54447068609E-01  0.96622012199E-02  0.55330875732E-01  0.51100000000E-03 0.  1.
</event>
<event>
 8    1  0.1093753E+005  0.1043930E+01  0.7957747E-01            NaN
         13   -1    0    0    0    0  0.00000000000E+00  0.00000000000E+00  0.74505805969E-08  0.10566000000E+00  0.10566000000E+00 0. -1.
     999900   -1    0    0    0    0 -0.00000000000E+00 -0.00000000000E+00 -0.74505805969E-08  0.93827000000E+00  0.93827000000E+00 0.  1.
     999902    2    1    2    0    0 -0.10583473138E-01 -0.18683723649E-01 -0.10997651074E-01  0.10198044998E+01  0.10195190915E+01 0.  0.
     999903    2    3    3    0    0 -0.78627052604E-02 -0.82767333666E-01 -0.10160790186E+00  0.13282968095E+00  0.20181792885E-01 0.  0.
         14    1    1    2    0    0  0.10583473138E-01  0.18683723649E-01  0.10997651074E-01  0.24125500247E-01  0.00000000000E+00 0. -1.
     999901    1    3    3    0    0 -0.27207678779E-02  0.64083610018E-01  0.90610250783E-01  0.88697481881E+00  0.88000000000E+00 0. -1.
        -11    1    4    4    0    0  0.44193373312E-02 -0.16763555068E-01 -0.13083112629E-01  0.21725015029E-01  0.51100000000E-03 0.  1.
         11    1    4    4    0    0 -0.12282042592E-01 -0.66003778599E-01 -0.88524789228E-01  0.11110466592E+00  0.51100000000E-03 0. -1.
</event>
<event>
 8    1  0.1093753E+005  0.1043930E+01  0.7957747E-01            NaN
         13   -1    0    0    0    0  0.00000000000E+00  0.00000000000E+00  0.74505805969E-08  0.10566000000E+00  0.10566000000E+00 0.  1.
     999900   -1    0    0    0    0 -0.00000000000E+00 -0.00000000000E+00 -0.74505805969E-08  0.93827000000E+00  0.93827000000E+00 0. -1.
     999902    2    1    2    0    0  0.28720852677E-02 -0.11171343920E-01  0.20375078098E-01  0.10205165080E+01  0.10202478873E+01 0.  0.
     999903    2    3    3    0    0 -0.57929330611E-01 -0.97231258589E-01 -0.62070851751E-01  0.13040390143E+00  0.18511128494E-01 0.  0.
         14    1    1    2    0    0 -0.28720852677E-02  0.11171343920E-01 -0.20375078098E-01  0.23413491971E-01  0.00000000000E+00 0. -1.
     999901    1    3    3    0    0  0.60801415879E-01  0.86059914669E-01  0.82445929849E-01  0.89011260660E+00  0.88000000000E+00 0.  1.
        -11    1    4    4    0    0 -0.35147583819E-01 -0.48347188390E-01 -0.24132508546E-01  0.64462720724E-01  0.51100000000E-03 0.  1.
         11    1    4    4    0    0 -0.22781746793E-01 -0.48884070199E-01 -0.37938343205E-01  0.65941180701E-01  0.51100000000E-03 0. -1.
</event>
<event>
 8    1  0.1093753E+005  0.1043930E+01  0.7957747E-01            NaN
         13   -1    0    0    0    0  0.00000000000E+00  0.00000000000E+00  0.74505805969E-08  0.10566000000E+00  0.10566000000E+00 0.  1.
     999900   -1    0    0    0    0 -0.00000000000E+00 -0.00000000000E+00 -0.74505805969E-08  0.93827000000E+00  0.93827000000E+00 0.  1.
     999902    2    1    2    0    0  0.13052258033E-01 -0.16843297425E-02  0.20001311077E-01  0.10199873424E+01  0.10197062949E+01 0.  0.
     999903    2    3    3    0    0  0.32816624233E-01 -0.30211375243E-01  0.12184922214E+00  0.13343366697E+00  0.31107113718E-01 0.  0.
         14    1    1    2    0    0 -0.13052258033E-01  0.16843297425E-02 -0.20001311077E-01  0.23942657565E-01  0.00000000000E+00 0. -1.
     999901    1    3    3    0    0 -0.19764366200E-01  0.28527045500E-01 -0.10184791106E+00  0.88655367547E+00  0.88000000000E+00 0.  1.
        -11    1    4    4    0    0  0.26057071830E-01 -0.33229293364E-02  0.51450971051E-01  0.57770895742E-01  0.51100000000E-03 0.  1.
         11    1    4    4    0    0  0.67595524029E-02 -0.26888445906E-01  0.70398251091E-01  0.75662771226E-01  0.51100000000E-03 0. -1.
</event>
<event>
 8    1  0.1093753E+005  0.1043930E+01  0.7957747E-01            NaN
         13   -1    0    0    0    0  0.00000000000E+00  0.00000000000E+00  0.74505805969E-08  0.10566000000E+00  0.10566000000E+00 0.  1.
     999900   -1    0    0    0    0 -0.00000000000E+00 -0.00000000000E+00 -0.74505805969E-08  0.93827000000E+00  0.93827000000E+00 0.  1.
     999902    2    1    2    0    0 -0.22483991580E-01  0.64849926838E-02 -0.35356189953E-02  0.10202638721E+01  0.10199893544E+01 0.  0.
     999903    2    3    3    0    0 -0.42500082119E-01 -0.10323217344E+00 -0.65537864395E-01  0.13106042022E+00  0.20456868393E-01 0.  0.
         14    1    1    2    0    0  0.22483991580E-01 -0.64849926838E-02  0.35356189953E-02  0.23666127887E-01  0.00000000000E+00 0. -1.
     999901    1    3    3    0    0  0.20016090539E-01  0.10971716613E+00  0.62002245400E-01  0.88920345189E+00  0.88000000000E+00 0. -1.
        -11    1    4    4    0    0 -0.11002079030E-01 -0.49064074731E-01 -0.35616592873E-01  0.61620872933E-01  0.51100000000E-03 0. -1.
         11    1    4    4    0    0 -0.31498003088E-01 -0.54168098714E-01 -0.29921271522E-01  0.69439547287E-01  0.51100000000E-03 0.  1.
</event>
<event>
 8    1  0.1093753E+005  0.1043930E+01  0.7957747E-01            NaN
         13   -1    0    0    0    0  0.00000000000E+00  0.00000000000E+00  0.74505805969E-08  0.10566000000E+00  0.10566000000E+00 0. -1.
     999900   -1    0    0    0    0 -0.00000000000E+00 -0.00000000000E+00 -0.74505805969E-08  0.93827000000E+00  0.93827000000E+00 0.  1.
     999902    2    1    2    0    0 -0.74980594684E-02 -0.96952957649E-02  0.19641375153E-01  0.10207782555E+01  0.10205156753E+01 0.  0.
     999903    2    3    3    0    0  0.66351415157E-01 -0.49482025817E-01  0.10233493798E+00  0.13292975821E+00  0.18625249372E-01 0.  0.
         14    1    1    2    0    0  0.74980594684E-02  0.96952957649E-02 -0.19641375153E-01  0.23151744506E-01  0.00000000000E+00 0. -1.
     999901    1    3    3    0    0 -0.73849474626E-01  0.39786730052E-01 -0.82693562830E-01  0.88784849728E+00  0.88000000000E+00 0.  1.
        -11    1    4    4    0    0  0.25970426257E-01 -0.26543167564E-01  0.34305782619E-01  0.50558388289E-01  0.51100000000E-03 0.  1.
         11    1    4    4    0    0  0.40380988901E-01 -0.22938858253E-01  0.68029155364E-01  0.82371369924E-01  0.51100000000E-03 0. -1.
</event>
<event>
 8    1  0.1093753E+005  0.1043930E+01  0.7957747E-01            NaN
         13   -1    0    0    0    0  0.00000000000E+00  0.00000000000E+00  0.74505805969E-08  0.10566000000E+00  0.10566000000E+00 0. -1.
     999900   -1    0    0    0    0 -0.00000000000E+00 -0.00000000000E+00 -0.74505805969E-08  0.93827000000E+00  0.93827000000E+00 0. -1.
     999902    2    1    2    0    0  0.86622055191E-02 -0.21567450604E-01 -0.48922592993E-02  0.10201787278E+01  0.10199022079E+01 0.  0.
     999903    2    3    3    0    0  0.63764077543E-01  0.10646375890E+00  0.26656864037E-01  0.12864995424E+00  0.20972190637E-01 0.  0.
         14    1    1    2    0    0 -0.86622055191E-02  0.21567450604E-01  0.48922592993E-02  0.23751272199E-01  0.00000000000E+00 0. -1.
     999901    1    3    3    0    0 -0.55101872024E-01 -0.12803120951E+00 -0.31549123336E-01  0.89152877356E+00  0.88000000000E+00 0.  1.
        -11    1    4    4    0    0  0.10935725135E-01  0.33868210847E-01  0.12677526634E-01  0.37783946230E-01  0.51100000000E-03 0. -1.
         11    1    4    4    0    0  0.52828352409E-01  0.72595548056E-01  0.13979337403E-01  0.90866008007E-01  0.51100000000E-03 0.  1.
</event>
<event>
 8    1  0.1093753E+005  0.1043930E+01  0.7957747E-01            NaN
         13   -1    0    0    0    0  0.00000000000E+00  0.00000000000E+00  0.74505805969E-08  0.10566000000E+00  0.10566000000E+00 0.  1.
     999900   -1    0    0    0    0 -0.00000000000E+00 -0.00000000000E+00 -0.74505805969E-08  0.93827000000E+00  0.93827000000E+00 0. -1.
     999902    2    1    2    0    0 -0.21754942445E-01  0.66289384143E-02  0.25337690814E-02  0.10210468112E+01  0.10207903557E+01 0.  0.
     999903    2    3    3    0    0 -0.43361162254E-02 -0.64600036201E-01 -0.11171892134E+00  0.13063642287E+00  0.19818955888E-01 0.  0.
         14    1    1    2    0    0  0.21754942445E-01 -0.66289384143E-02 -0.25337690814E-02  0.22883188830E-01  0.00000000000E+00 0. -1.
     999901    1    3    3    0    0 -0.17418826219E-01  0.71228974615E-01  0.11425269042E+00  0.89041038830E+00  0.88000000000E+00 0.  1.
        -11    1    4    4    0    0 -0.58871237148E-02 -0.29284514657E-01 -0.68973761108E-01  0.75165696077E-01  0.51100000000E-03 0.  1.
         11    1    4    4    0    0  0.15510074893E-02 -0.35315521544E-01 -0.42745160233E-01  0.55470726789E-01  0.51100000000E-03 0. -1.
</event>
<event>
 8    1  0.1093753E+005  0.1043930E+01  0.7957747E-01            NaN
         13   -1    0    0    0    0  0.00000000000E+00  0.00000000000E+00  0.74505805969E-08  0.10566000000E+00  0.10566000000E+00 0. -1.
     999900   -1    0    0    0    0 -0.00000000000E+00 -0.00000000000E+00 -0.74505805969E-08  0.93827000000E+00  0.93827000000E+00 0. -1.
     999902    2    1    2    0    0  0.14871698084E-01 -0.74415745464E-02  0.17565916978E-01  0.10197410382E+01  0.10194541083E+01 0.  0.
     999903    2    3    3    0    0 -0.50974451605E-01 -0.39404365621E-01  0.11317587736E+00  0.13154139846E+00  0.18527318907E-01 0.  0.
         14    1    1    2    0    0 -0.14871698084E-01  0.74415745464E-02 -0.17565916978E-01  0.24188961841E-01  0.00000000000E+00 0.  1.
     999901    1    3    3    0    0  0.65846149690E-01  0.31962791075E-01 -0.95609960380E-01  0.88819963970E+00  0.88000000000E+00 0. -1.
        -11    1    4    4    0    0 -0.22249405330E-01 -0.25994437088E-01  0.46739041633E-01  0.57927074247E-01  0.51100000000E-03 0. -1.
         11    1    4    4    0    0 -0.28725046276E-01 -0.13409928533E-01  0.66436835725E-01  0.73614324211E-01  0.51100000000E-03 0.  1.
</event>
<event>
 8    1  0.1093753E+005  0.1043930E+01  0.7957747E-01            NaN
         13   -1    0    0    0    0  0.00000000000E+00  0.00000000000E+00  0.74505805969E-08  0.10566000000E+00  0.10566000000E+00 0.  1.
     999900   -1    0    0    0    0 -0.00000000000E+00 -0.00000000000E+00 -0.74505805969E-08  0.93827000000E+00  0.93827000000E+00 0. -1.
     999902    2    1    2    0    0 -0.87761939990E-02 -0.41631898498E-02  0.22147785214E-01  0.10197457464E+01  0.10194589296E+01 0.  0.
     999903    2    3    3    0    0 -0.12594815509E-01  0.31881112117E-01  0.12661611688E+00  0.13282556632E+00  0.20879543233E-01 0.  0.
         14    1    1    2    0    0  0.87761939990E-02  0.41631898498E-02 -0.22147785214E-01  0.24184253570E-01  0.00000000000E+00 0. -1.
     999901    1    3    3    0    0  0.38186215101E-02 -0.36044301966E-01 -0.10446833167E+00  0.88692018012E+00  0.88000000000E+00 0. -1.
        -11    1    4    4    0    0 -0.14397255863E-01  0.21397314338E-01  0.59232520736E-01  0.64605562230E-01  0.51100000000E-03 0. -1.
         11    1    4    4    0    0  0.18024403538E-02  0.10483797778E-01  0.67383596144E-01  0.68220004085E-01  0.51100000000E-03 0.  1.
</event>
<event>
 8    1  0.1093753E+005  0.1043930E+01  0.7957747E-01            NaN
         13   -1    0    0    0    0  0.00000000000E+00  0.00000000000E+00  0.74505805969E-08  0.10566000000E+00  0.10566000000E+00 0.  1.
     999900   -1    0    0    0    0 -0.00000000000E+00 -0.00000000000E+00 -0.74505805969E-08  0.93827000000E+00  0.93827000000E+00 0.  1.
     999902    2    1    2    0    0 -0.22549280772E-01 -0.13434223970E-03 -0.68089006007E-02  0.10203747620E+01  0.10201028407E+01 0.  0.
     999903    2    3    3    0    0 -0.13155260683E+00 -0.11852852743E-01 -0.71047239211E-02  0.13357200144E+00  0.18558663342E-01 0.  0.
         14    1    1    2    0    0  0.22549280772E-01  0.13434223970E-03  0.68089006007E-02  0.23555238028E-01  0.00000000000E+00 0.  1.
     999901    1    3    3    0    0  0.10900332605E+00  0.11718510504E-01  0.29582332035E-03  0.88680276053E+00  0.88000000000E+00 0.  1.
        -11    1    4    4    0    0 -0.99192792155E-01 -0.36543705344E-02 -0.11386783551E-01  0.99912383618E-01  0.51100000000E-03 0. -1.
         11    1    4    4    0    0 -0.32359814671E-01 -0.81984822090E-02  0.42820596303E-02  0.33659617820E-01  0.51100000000E-03 0.  1.
</event>
<event>
 8    1  0.1093753E+005  0.1043930E+01  0.7957747E-01            NaN
         13   -1    0    0    0    0  0.00000000000E+00  0.00000000000E+00  0.74505805969E-08  0.10566000000E+00  0.10566000000E+00 0.  1.
     999900   -1    0    0    0    0 -0.00000000000E+00 -0.00000000000E+00 -0.74505805969E-08  0.93827000000E+00  0.93827000000E+00 0.  1.
     999902    2    1    2    0    0  0.12064326496E-01 -0.20311841868E-01 -0.12640679735E-02  0.10202716661E+01  0.10199973313E+01 0.  0.
     999903    2    3    3    0    0 -0.20643033709E-01  0.65024833344E-02 -0.12669546065E+00  0.13037177641E+00  0.21832159853E-01 0.  0.
         14    1    1    2    0    0 -0.12064326496E-01  0.20311841868E-01  0.12640679735E-02  0.23658333874E-01  0.00000000000E+00 0. -1.
     999901    1    3    3    0    0  0.32707360204E-01 -0.26814325203E-01  0.12543139268E+00  0.88989988972E+00  0.88000000000E+00 0. -1.
        -11    1    4    4    0    0 -0.15960569263E-01 -0.55501693457E-02 -0.55790860175E-01  0.58296014882E-01  0.51100000000E-03 0. -1.
         11    1    4    4    0    0 -0.46824644451E-02  0.12052652680E-01 -0.70904600478E-01  0.72075761528E-01  0.51100000000E-03 0.  1.
</event>
<event>
 8    1  0.1093753E+005  0.1043930E+01  0.7957747E-01            NaN
         13   -1    0    0    0    0  0.00000000000E+00  0.00000000000E+00  0.74505805969E-08  0.10566000000E+00  0.10566000000E+00 0.  1.
     999900   -1    0    0    0    0 -0.00000000000E+00 -0.00000000000E+00 -0.74505805969E-08  0.93827000000E+00  0.93827000000E+00 0.  1.
     999902    2    1    2    0    0 -0.17121798815E-01  0.54239060781E-02 -0.14622457184E-01  0.10207698833E+01  0.10205071110E+01 0.  0.
     999903    2    3    3    0    0 -0.10767010400E+00  0.58808899343E-01  0.45685121623E-01  0.13246477966E+00  0.20210135486E-01 0.  0.
         14    1    1    2    0    0  0.17121798815E-01 -0.54239060781E-02  0.14622457184E-01  0.23160116707E-01  0.00000000000E+00 0. -1.
     999901    1    3    3    0    0  0.90548305182E-01 -0.53384993265E-01 -0.60307578807E-01  0.88830510363E+00  0.88000000000E+00 0. -1.
        -11    1    4    4    0    0 -0.36264233797E-01  0.14091683830E-01  0.23047033371E-01  0.45222749521E-01  0.51100000000E-03 0. -1.
         11    1    4    4    0    0 -0.71405870200E-01  0.44717215514E-01  0.22638088252E-01  0.87242030140E-01  0.51100000000E-03 0.  1.
</event>
<event>
 8    1  0.1093753E+005  0.1043930E+01  0.7957747E-01            NaN
         13   -1    0    0    0    0  0.00000000000E+00  0.00000000000E+00  0.74505805969E-08  0.10566000000E+00  0.10566000000E+00 0.  1.
     999900   -1    0    0    0    0 -0.00000000000E+00 -0.00000000000E+00 -0.74505805969E-08  0.93827000000E+00  0.93827000000E+00 0. -1.
     999902    2    1    2    0    0  0.23088588865E-01 -0.61059362879E-03 -0.71986462107E-03  0.10208221233E+01  0.10205605486E+01 0.  0.
     999903    2    3    3    0    0 -0.44374704198E-01  0.89714167047E-01  0.80795699651E-01  0.12989303212E+00  0.18069548110E-01 0.  0.
         14    1    1    2    0    0 -0.23088588865E-01  0.61059362879E-03  0.71986462107E-03  0.23107876697E-01  0.00000000000E+00 0. -1.
     999901    1    3    3    0    0  0.67463293064E-01 -0.90324760676E-01 -0.81515564272E-01  0.89092909119E+00  0.88000000000E+00 0.  1.
        -11    1    4    4    0    0 -0.35232742194E-01  0.53035235815E-01  0.46442251450E-01  0.78811332949E-01  0.51100000000E-03 0. -1.
         11    1    4    4    0    0 -0.91419620041E-02  0.36678931232E-01  0.34353448201E-01  0.51081699168E-01  0.51100000000E-03 0.  1.
</event>
<event>
 8    1  0.1093753E+005  0.1043930E+01  0.7957747E-01            NaN
         13   -1    0    0    0    0  0.00000000000E+00  0.00000000000E+00  0.74505805969E-08  0.10566000000E+00  0.10566000000E+00 0.  1.
     999900   -1    0    0    0    0 -0.00000000000E+00 -0.00000000000E+00 -0.74505805969E-08  0.93827000000E+00  0.93827000000E+00 0.  1.
     999902    2    1    2    0    0 -0.11914465116E-01  0.11463880715E-01  0.17152684519E-01  0.10201058604E+01  0.10198276211E+01 0.  0.
     999903    2    3    3    0    0 -0.34486415838E-01 -0.11257294661E+00  0.52611186161E-01  0.13041381661E+00  0.19438247584E-01 0.  0.
         14    1    1    2    0    0  0.11914465116E-01 -0.11463880715E-01 -0.17152684519E-01  0.23824139570E-01  0.00000000000E+00 0. -1.
     999901    1    3    3    0    0  0.22571950722E-01  0.12403682732E+00 -0.35458501642E-01  0.88969204382E+00  0.88000000000E+00 0. -1.
        -11    1    4    4    0    0 -0.10116979617E-01 -0.64761956799E-01  0.26068672139E-01  0.70542902642E-01  0.51100000000E-03 0.  1.
         11    1    4    4    0    0 -0.24369436221E-01 -0.47810989808E-01  0.26542514022E-01  0.59870913971E-01  0.51100000000E-03 0. -1.
</event>
<event>
 8    1  0.1093753E+005  0.1043930E+01  0.7957747E-01            NaN
         13   -1    0    0    0    0  0.00000000000E+00  0.00000000000E+00  0.74505805969E-08  0.10566000000E+00  0.10566000000E+00 0. -1.
     999900   -1    0    0    0    0 -0.00000000000E+00 -0.00000000000E+00 -0.74505805969E-08  0.93827000000E+00  0.93827000000E+00 0.  1.
     999902    2    1    2    0    0 -0.13857305435E-01  0.18296694515E-01 -0.54786759152E-02  0.10203331817E+01  0.10200602883E+01 0.  0.
     999903    2    3    3    0    0  0.69206134176E-01 -0.49969429028E-01 -0.94893899300E-01  0.12929172318E+00  0.20617097622E-01 0.  0.
         14    1    1    2    0    0  0.13857305435E-01 -0.18296694515E-01  0.54786759152E-02  0.23596818299E-01  0.00000000000E+00 0. -1.
     999901    1    3    3    0    0 -0.83063439611E-01  0.68266123543E-01  0.89415223385E-01  0.89104145852E+00  0.88000000000E+00 0. -1.
        -11    1    4    4    0    0  0.28889837519E-01 -0.25488765622E-01 -0.28855489636E-01  0.48137306613E-01  0.51100000000E-03 0. -1.
         11    1    4    4    0    0  0.40316296657E-01 -0.24480663406E-01 -0.66038409664E-01  0.81154416570E-01  0.51100000000E-03 0.  1.
</event>
<event>
 8    1  0.1093753E+005  0.1043930E+01  0.7957747E-01            NaN
         13   -1    0    0    0    0  0.00000000000E+00  0.00000000000E+00  0.74505805969E-08  0.10566000000E+00  0.10566000000E+00 0. -1.
     999900   -1    0    0    0    0 -0.00000000000E+00 -0.00000000000E+00 -0.74505805969E-08  0.93827000000E+00  0.93827000000E+00 0. -1.
     999902    2    1    2    0    0 -0.15114220502E-01  0.19428569127E-01  0.60788048410E-02  0.10185752997E+01  0.10182596822E+01 0.  0.
     999903    2    3    3    0    0  0.45514070149E-01 -0.10065428629E+00  0.58964947429E-01  0.12678349334E+00  0.19858832467E-01 0.  0.
         14    1    1    2    0    0  0.15114220502E-01 -0.19428569127E-01 -0.60788048410E-02  0.25354700314E-01  0.00000000000E+00 0. -1.
     999901    1    3    3    0    0 -0.60628290652E-01  0.12008285542E+00 -0.52886142588E-01  0.89179180635E+00  0.88000000000E+00 0. -1.
        -11    1    4    4    0    0  0.21094102664E-01 -0.61188360769E-01  0.42980141685E-01  0.77695111565E-01  0.51100000000E-03 0.  1.
         11    1    4    4    0    0  0.24419967485E-01 -0.39465925523E-01  0.15984805744E-01  0.49088381773E-01  0.51100000000E-03 0. -1.
</event>
<event>
 8    1  0.1093753E+005  0.1043930E+01  0.7957747E-01            NaN
         13   -1    0    0    0    0  0.00000000000E+00  0.00000000000E+00  0.74505805969E-08  0.10566000000E+00  0.10566000000E+00 0. -1.
     999900   -1    0    0    0    0 -0.00000000000E+00 -0.00000000000E+00 -0.74505805969E-08  0.93827000000E+00  0.93827000000E+00 0.  1.
     999902    2    1    2    0    0  0.19287060224E-01 -0.23736120740E-02 -0.14153105291E-01  0.10198897189E+01  0.10196063474E+01 0.  0.
     999903    2    3    3    0    0 -0.94832298817E-01  0.67791504689E-01  0.47567097110E-01  0.12761411399E+00  0.20829794891E-01 0.  0.
         14    1    1    2    0    0 -0.19287060224E-01  0.23736120740E-02  0.14153105291E-01  0.24040281108E-01  0.00000000000E+00 0.  1.
     999901    1    3    3    0    0  0.11411935904E+00 -0.70165116763E-01 -0.61720202401E-01  0.89227560490E+00  0.88000000000E+00 0.  1.
        -11    1    4    4    0    0 -0.37892344389E-01  0.39014988229E-01  0.17958886398E-01  0.57278109182E-01  0.51100000000E-03 0. -1.
         11    1    4    4    0    0 -0.56939954428E-01  0.28776516459E-01  0.29608210712E-01  0.70336004808E-01  0.51100000000E-03 0.  1.
</event>
<event>
 8    1  0.1093753E+005  0.1043930E+01  0.7957747E-01            NaN
         13   -1    0    0    0    0  0.00000000000E+00  0.00000000000E+00  0.74505805969E-08  0.10566000000E+00  0.10566000000E+00 0.  1.
     999900   -1    0    0    0    0 -0.00000000000E+00 -0.00000000000E+00 -0.74505805969E-08  0.93827000000E+00  0.93827000000E+00 0. -1.
     999902    2    1    2    0    0  0.11357961780E-01  0.19713752478E-03  0.20140453974E-01  0.10208068504E+01  0.10205449259E+01 0.  0.
     999903    2    3    3    0    0 -0.11431555438E+00 -0.35260614960E-01 -0.43968519423E-01  0.12886456232E+00  0.19012832001E-01 0.  0.
         14    1    1    2    0    0 -0.11357961780E-01 -0.19713752478E-03 -0.20140453974E-01  0.23123149553E-01  0.00000000000E+00 0. -1.
     999901    1    3    3    0    0  0.12567351616E+00  0.35457752485E-01  0.64108973397E-01  0.89194228813E+00  0.88000000000E+00 0.  1.
        -11    1    4    4    0    0 -0.10508675644E-01  0.18828098938E-02 -0.59976685415E-02  0.12256034669E-01  0.51100000000E-03 0. -1.
         11    1    4    4    0    0 -0.10380687874E+00 -0.37143424854E-01 -0.37970850882E-01  0.11660852765E+00  0.51100000000E-03 0.  1.
</event>
<event>
 8    1  0.1093753E+005  0.1043930E+01  0.7957747E-01            NaN
         13   -1    0    0    0    0  0.00000000000E+00  0.00000000000E+00  0.74505805969E-08  0.10566000000E+00  0.10566000000E+00 0. -1.
     999900   -1    0    0    0    0 -0.00000000000E+00 -0.00000000000E+00 -0.74505805969E-08  0.93827000000E+00  0.93827000000E+00 0.  1.
     999902    2    1    2    0    0 -0.10293620905E-01 -0.21405567346E-01 -0.34789968813E-02  0.10199245764E+01  0.10196420358E+01 0.  0.
     999903    2    3    3    0    0  0.89483085000E-01  0.26077703395E-01 -0.87070761882E-01  0.12908360558E+00  0.19849194950E-01 0.  0.
         14    1    1    2    0    0  0.10293620905E-01  0.21405567346E-01  0.34789968813E-02  0.24005423638E-01  0.00000000000E+00 0.  1.
     999901    1    3    3    0    0 -0.99776705906E-01 -0.47483270741E-01  0.83591765000E-01  0.89084097078E+00  0.88000000000E+00 0. -1.
        -11    1    4    4    0    0  0.48161107212E-01  0.19959987331E-01 -0.59095447297E-01  0.78806258345E-01  0.51100000000E-03 0. -1.
         11    1    4    4    0    0  0.41321977789E-01  0.61177160643E-02 -0.27975314585E-01  0.50277347239E-01  0.51100000000E-03 0.  1.
</event>
<event>
 8    1  0.1093753E+005  0.1043930E+01  0.7957747E-01            NaN
         13   -1    0    0    0    0  0.00000000000E+00  0.00000000000E+00  0.74505805969E-08  0.10566000000E+00  0.10566000000E+00 0.  1.
     999900   -1    0    0    0    0 -0.00000000000E+00 -0.00000000000E+00 -0.74505805969E-08  0.93827000000E+00  0.93827000000E+00 0. -1.
     999902    2    1    2    0    0 -0.17602840168E-01 -0.13016244364E-01 -0.85808860536E-02  0.10204158722E+01  0.10201449103E+01 0.  0.
     999903    2    3    3    0    0  0.32097520753E-01 -0.12590921091E+00  0.38320061273E-02  0.13172637209E+00  0.21301938906E-01 0.  0.
         14    1    1    2    0    0  0.17602840168E-01  0.13016244364E-01  0.85808860536E-02  0.23514127770E-01  0.00000000000E+00 0.  1.
     999901    1    3    3    0    0 -0.49700360921E-01  0.11289296655E+00 -0.12412892181E-01  0.88868950014E+00  0.88000000000E+00 0.  1.
        -11    1    4    4    0    0  0.12407928022E-01 -0.18942222390E-01  0.37665652339E-02  0.22961110634E-01  0.51100000000E-03 0. -1.
         11    1    4    4    0    0  0.19689592731E-01 -0.10696698852E+00  0.65440893390E-04  0.10876526145E+00  0.51100000000E-03 0.  1.
</event>
<event>
 8    1  0.1093753E+005  0.1043930E+01  0.7957747E-01            NaN
         13   -1    0    0    0    0  0.00000000000E+00  0.00000000000E+00  0.74505805969E-08  0.10566000000E+00  0.10566000000E+00 0.  1.
     999900   -1    0    0    0    0 -0.00000000000E+00 -0.00000000000E+00 -0.74505805969E-08  0.93827000000E+00  0.93827000000E+00 0.  1.
     999902    2    1    2    0    0 -0.13549515580E-01  0.19865585233E-01  0.18951000964E-02  0.10198090080E+01  0.10195237077E+01 0.  0.
     999903    2    3    3    0    0  0.34507257300E-01  0.38340836652E-01 -0.11778758822E+00  0.13021655403E+00  0.20534469666E-01 0.  0.
         14    1    1    2    0    0  0.13549515580E-01 -0.19865585233E-01 -0.18951000964E-02  0.24120991967E-01  0.00000000000E+00 0. -1.
     999901    1    3    3    0    0 -0.48056772881E-01 -0.18475251419E-01  0.11968268831E+00  0.88959245400E+00  0.88000000000E+00 0. -1.
        -11    1    4    4    0    0  0.23892318128E-01  0.37051186516E-01 -0.85465768803E-01  0.96168040668E-01  0.51100000000E-03 0.  1.
         11    1    4    4    0    0  0.10614939172E-01  0.12896501360E-02 -0.32321819413E-01  0.34048513364E-01  0.51100000000E-03 0. -1.
</event>
<event>
 8    1  0.1093753E+005  0.1043930E+01  0.7957747E-01            NaN
         13   -1    0    0    0    0  0.00000000000E+00  0.00000000000E+00  0.74505805969E-08  0.10566000000E+00  0.10566000000E+00 0. -1.
     999900   -1    0    0    0    0 -0.00000000000E+00 -0.00000000000E+00 -0.74505805969E-08  0.93827000000E+00  0.93827000000E+00 0.  1.
     999902    2    1    2    0    0  0.12084261705E-01  0.18556308099E-01  0.11968362123E-01  0.10187584358E+01  0.10184474178E+01 0.  0.
     999903    2    3    3    0    0  0.15976223279E-01 -0.35718084916E-01 -0.11948534089E+00  0.12733208825E+00  0.20141814975E-01 0.  0.
         14    1    1    2    0    0 -0.12084261705E-01 -0.18556308099E-01 -0.11968362123E-01  0.25171564177E-01  0.00000000000E+00 0.  1.
     999901    1    3    3    0    0 -0.38919615747E-02  0.54274393015E-01  0.13145370302E+00  0.89142634757E+00  0.88000000000E+00 0. -1.
        -11    1    4    4    0    0  0.19615024927E-01 -0.21192019971E-01 -0.73672944166E-01  0.79131629178E-01  0.51100000000E-03 0.  1.
         11    1    4    4    0    0 -0.36388016480E-02 -0.14526064945E-01 -0.45812396728E-01  0.48200459077E-01  0.51100000000E-03 0. -1.
</event>
<event>
 8    1  0.1093753E+005  0.1043930E+01  0.7957747E-01            NaN
         13   -1    0    0    0    0  0.00000000000E+00  0.00000000000E+00  0.74505805969E-08  0.10566000000E+00  0.10566000000E+00 0. -1.
     999900   -1    0    0    0    0 -0.00000000000E+00 -0.00000000000E+00 -0.74505805969E-08  0.93827000000E+00  0.93827000000E+00 0. -1.
     999902    2    1    2    0    0 -0.83907105376E-02  0.14484225830E-01  0.16400737637E-01  0.10204953885E+01  0.10202262773E+01 0.  0.
     999903    2    3    3    0    0 -0.89132140917E-01  0.96439150828E-01  0.24899519015E-02  0.13289790187E+00  0.20263368518E-01 0.  0.
         14    1    1    2    0    0  0.83907105376E-02 -0.14484225830E-01 -0.16400737637E-01  0.23434611502E-01  0.00000000000E+00 0.  1.
     999901    1    3    3    0    0  0.80741430380E-01 -0.81954924998E-01  0.13910785736E-01  0.88759748663E+00  0.88000000000E+00 0.  1.
        -11    1    4    4    0    0 -0.70107371223E-01  0.62317501648E-01  0.13889675846E-02  0.93812072056E-01  0.51100000000E-03 0.  1.
         11    1    4    4    0    0 -0.19024769694E-01  0.34121649180E-01  0.11009843169E-02  0.39085829813E-01  0.51100000000E-03 0. -1.
</event>
<event>
 8    1  0.1093753E+005  0.1043930E+01  0.7957747E-01            NaN
         13   -1    0    0    0    0  0.00000000000E+00  0.00000000000E+00  0.74505805969E-08  0.10566000000E+00  0.10566000000E+00 0.  1.
     999900   -1    0    0    0    0 -0.00000000000E+00 -0.00000000000E+00 -0.74505805969E-08  0.93827000000E+00  0.93827000000E+00 0.  1.
     999902    2    1    2    0    0  0.54091036774E-02 -0.14117773344E-01 -0.19183524032E-01  0.10195050635E+01  0.10192124396E+01 0.  0.
     999903    2    3    3    0    0  0.13809360792E-01 -0.12462464917E+00  0.32362666511E-01  0.13105734776E+00  0.20166422370E-01 0.  0.
         14    1    1    2    0    0 -0.54091036774E-02  0.14117773344E-01  0.19183524032E-01  0.24424936460E-01  0.00000000000E+00 0.  1.
     999901    1    3    3    0    0 -0.84002571145E-02  0.11050687582E+00 -0.51546190543E-01  0.88844771578E+00  0.88000000000E+00 0. -1.
        -11    1    4    4    0    0  0.10876686422E-01 -0.64059081070E-01  0.26364011644E-01  0.70122681109E-01  0.51100000000E-03 0. -1.
         11    1    4    4    0    0  0.29326743697E-02 -0.60565568098E-01  0.59986548675E-02  0.60934666646E-01  0.51100000000E-03 0.  1.
</event>
<event>
 8    1  0.1093753E+005  0.1043930E+01  0.7957747E-01            NaN
         13   -1    0    0    0    0  0.00000000000E+00  0.00000000000E+00  0.74505805969E-08  0.10566000000E+00  0.10566000000E+00 0. -1.
     999900   -1    0    0    0    0 -0.00000000000E+00 -0.00000000000E+00 -0.74505805969E-08  0.93827000000E+00  0.93827000000E+00 0.  1.
     999902    2    1    2    0    0 -0.14635138337E-01  0.30877739323E-02 -0.18810188580E-01  0.10198978379E+01  0.10196146600E+01 0.  0.
     999903    2    3    3    0    0 -0.30968861403E-01 -0.79687713552E-01  0.94037697355E-01  0.12868898626E+00  0.20212980799E-01 0.  0.
         14    1    1    2    0    0  0.14635138337E-01 -0.30877739323E-02  0.18810188580E-01  0.24032162125E-01  0.00000000000E+00 0. -1.
     999901    1    3    3    0    0  0.16333723066E-01  0.82775487485E-01 -0.11284788593E+00  0.89120885162E+00  0.88000000000E+00 0.  1.
        -11    1    4    4    0    0 -0.23469866432E-01 -0.37740241249E-01  0.56594906583E-01  0.71961135428E-01  0.51100000000E-03 0.  1.
         11    1    4    4    0    0 -0.74989949713E-02 -0.41947472303E-01  0.37442790772E-01  0.56727850832E-01  0.51100000000E-03 0. -1.
</event>
<event>
 8    1  0.1093753E+005  0.1043930E+01  0.7957747E-01            NaN
         13   -1    0    0    0    0  0.00000000000E+00  0.00000000000E+00  0.74505805969E-08  0.10566000000E+00  0.10566000000E+00 0. -1.
     999900   -1    0    0    0    0 -0.00000000000E+00 -0.00000000000E+00 -0.74505805969E-08  0.93827000000E+00  0.93827000000E+00 0.  1.
     999902    2    1    2    0    0  0.65629461949E-02  0.22167868791E-01 -0.36054061479E-02  0.10205315893E+01  0.10202633185E+01 0.  0.
     999903    2    3    3    0    0  0.25160744651E-01 -0.54456098416E-01  0.11121638369E+00  0.12957639746E+00  0.28678023820E-01 0.  0.
         14    1    1    2    0    0 -0.65629461949E-02 -0.22167868791E-01  0.36054061479E-02  0.23398410693E-01  0.00000000000E+00 0. -1.
     999901    1    3    3    0    0 -0.18597798456E-01  0.76623967207E-01 -0.11482178984E+00  0.89095519185E+00  0.88000000000E+00 0.  1.
        -11    1    4    4    0    0  0.16127437732E-01 -0.99050618048E-02  0.48923092901E-01  0.52458885206E-01  0.51100000000E-03 0. -1.
         11    1    4    4    0    0  0.90333069195E-02 -0.44551036611E-01  0.62293290794E-01  0.77117512252E-01  0.51100000000E-03 0.  1.
</event>
<event>
 8    1  0.1093753E+005  0.1043930E+01  0.7957747E-01            NaN
         13   -1    0    0    0    0  0.00000000000E+00  0.00000000000E+00  0.74505805969E-08  0.10566000000E+00  0.10566000000E+00 0. -1.
     999900   -1    0    0    0    0 -0.00000000000E+00 -0.00000000000E+00 -0.74505805969E-08  0.93827000000E+00  0.93827000000E+00 0. -1.
     999902    2    1    2    0    0  0.73828246679E-02  0.16071735235E-02 -0.23158797364E-01  0.10195698070E+01  0.10192787511E+01 0.  0.
     999903    2    3    3    0    0 -0.92855183110E-01 -0.72809453083E-01  0.48329673080E-01  0.12788819684E+00  0.98148918759E-02 0.  0.
         14    1    1    2    0    0 -0.73828246679E-02 -0.16071735235E-02  0.23158797364E-01  0.24360192983E-01  0.00000000000E+00 0. -1.
     999901    1    3    3    0    0  0.10023800778E+00  0.74416626607E-01 -0.71488470444E-01  0.89168161018E+00  0.88000000000E+00 0. -1.
        -11    1    4    4    0    0 -0.84360380683E-01 -0.62356052192E-01  0.42086647958E-01  0.11303317270E+00  0.51100000000E-03 0.  1.
         11    1    4    4    0    0 -0.84948024272E-02 -0.10453400891E-01  0.62430251226E-02  0.14855024138E-01  0.51100000000E-03 0. -1.
</event>
<event>
 8    1  0.1093753E+005  0.1043930E+01  0.7957747E-01            NaN
         13   -1    0    0    0    0  0.00000000000E+00  0.00000000000E+00  0.74505805969E-08  0.10566000000E+00  0.10566000000E+00 0. -1.
     999900   -1    0    0    0    0 -0.00000000000E+00 -0.00000000000E+00 -0.74505805969E-08  0.93827000000E+00  0.93827000000E+00 0. -1.
     999902    2    1    2    0    0  0.14216487259E-01 -0.13054208137E-01 -0.89108151875E-02  0.10226715079E+01  0.10224505316E+01 0.  0.
     999903    2    3    3    0    0  0.12760106338E+00  0.17517325137E-01 -0.33448008256E-01  0.13453145440E+00  0.19775108329E-01 0.  0.
         14    1    1    2    0    0 -0.14216487259E-01  0.13054208137E-01  0.89108151875E-02  0.21258492124E-01  0.00000000000E+00 0. -1.
     999901    1    3    3    0    0 -0.11338457612E+00 -0.30571533274E-01  0.24537193068E-01  0.88814005348E+00  0.88000000000E+00 0.  1.
        -11    1    4    4    0    0  0.85019165261E-01  0.13801901057E-01 -0.12871324782E-01  0.87090085871E-01  0.51100000000E-03 0. -1.
         11    1    4    4    0    0  0.42581898123E-01  0.37154240797E-02 -0.20576683474E-01  0.47441368526E-01  0.51100000000E-03 0.  1.
</event>
<event>
 8    1  0.1093753E+005  0.1043930E+01  0.7957747E-01            NaN
         13   -1    0    0    0    0  0.00000000000E+00  0.00000000000E+00  0.74505805969E-08  0.10566000000E+00  0.10566000000E+00 0.  1.
     999900   -1    0    0    0    0 -0.00000000000E+00 -0.00000000000E+00 -0.74505805969E-08  0.93827000000E+00  0.93827000000E+00 0. -1.
     999902    2    1    2    0    0  0.14257014851E-01 -0.99824696682E-02  0.16229554011E-01  0.10201327187E+01  0.10198551138E+01 0.  0.
     999903    2    3    3    0    0 -0.12342945294E+00 -0.54715914394E-02 -0.28251861600E-01  0.12830509649E+00  0.19981539813E-01 0.  0.
         14    1    1    2    0    0 -0.14257014851E-01  0.99824696682E-02 -0.16229554011E-01  0.23797281285E-01  0.00000000000E+00 0. -1.
     999901    1    3    3    0    0  0.13768646780E+00 -0.45108782288E-02  0.44481415611E-01  0.89182762223E+00  0.88000000000E+00 0. -1.
        -11    1    4    4    0    0 -0.56745478899E-01 -0.10384950131E-01 -0.19348009864E-01  0.60848197766E-01  0.51100000000E-03 0.  1.
         11    1    4    4    0    0 -0.66683974046E-01  0.49133586914E-02 -0.89038517366E-02  0.67456898720E-01  0.51100000000E-03 0. -1.
</event>
<event>
 8    1  0.1093753E+005  0.1043930E+01  0.7957747E-01            NaN
         13   -1    0    0    0    0  0.00000000000E+00  0.00000000000E+00  0.74505805969E-08  0.10566000000E+00  0.10566000000E+00 0. -1.
     999900   -1    0    0    0    0 -0.00000000000E+00 -0.00000000000E+00 -0.74505805969E-08  0.93827000000E+00  0.93827000000E+00 0. -1.
     999902    2    1    2    0    0  0.22684272069E-01 -0.34573420836E-02 -0.61329329359E-02  0.10201783205E+01  0.10199017910E+01 0.  0.
     999903    2    3    3    0    0  0.13011353185E+00  0.18391583857E-01 -0.10833858656E-01  0.13336350321E+00  0.20016742239E-01 0.  0.
         14    1    1    2    0    0 -0.22684272069E-01  0.34573420836E-02  0.61329329359E-02  0.23751679519E-01  0.00000000000E+00 0.  1.
     999901    1    3    3    0    0 -0.10742925978E+00 -0.21848925940E-01  0.47009257201E-02  0.88681481727E+00  0.88000000000E+00 0.  1.
        -11    1    4    4    0    0  0.54238349027E-01  0.20868680672E-02  0.36942900273E-02  0.54406455714E-01  0.51100000000E-03 0.  1.
         11    1    4    4    0    0  0.75875182819E-01  0.16304715789E-01 -0.14528148683E-01  0.78957047500E-01  0.51100000000E-03 0. -1.
</event>
<event>
 7    1  0.1093753E+005  0.1043930E+01  0.7957747E-01            NaN
         13   -1    0    0    0    0  0.00000000000E+00  0.00000000000E+00  0.74505805969E-08  0.10566000000E+00  0.10566000000E+00 0. -1.
     999900   -1    0    0    0    0 -0.00000000000E+00 -0.00000000000E+00 -0.74505805969E-08  0.93827000000E+00  0.93827000000E+00 0. -1.
     999903    2    1    2    0    0  0.47601734739E-01 -0.81722199474E-01 -0.53256352782E-01  0.11049824583E+00  0.20716664351E-01 0.  0.
         14    1    1    2    0    0  0.39687680456E-01  0.20362537004E-01 -0.60014387383E-02  0.45008467650E-01  0.00000000000E+00 0. -1.
     999901    1    1    2    0    0 -0.87289415195E-01  0.61359662470E-01  0.59257791520E-01  0.88842328652E+00  0.88000000000E+00 0.  1.
        -11    1    3    3    0    0  0.19136251588E-01 -0.53079706302E-01 -0.31668281231E-01  0.64705428698E-01  0.51100000000E-03 0. -1.
         11    1    3    3    0    0  0.28465483151E-01 -0.28642493173E-01 -0.21588071551E-01  0.45792817127E-01  0.51100000000E-03 0.  1.
</event>
<event>
 8    1  0.1093753E+005  0.1043930E+01  0.7957747E-01            NaN
         13   -1    0    0    0    0  0.00000000000E+00  0.00000000000E+00  0.74505805969E-08  0.10566000000E+00  0.10566000000E+00 0. -1.
     999900   -1    0    0    0    0 -0.00000000000E+00 -0.00000000000E+00 -0.74505805969E-08  0.93827000000E+00  0.93827000000E+00 0. -1.
     999902    2    1    2    0    0 -0.14154782604E-01 -0.68284095235E-03  0.14709401264E-01  0.10235047551E+01  0.10233009299E+01 0.  0.
     999903    2    3    3    0    0 -0.69384948005E-01 -0.10941909169E+00  0.29488892103E-01  0.13497091968E+00  0.23680071090E-01 0.  0.
         14    1    1    2    0    0  0.14154782604E-01  0.68284095235E-03 -0.14709401264E-01  0.20425244867E-01  0.00000000000E+00 0.  1.
     999901    1    3    3    0    0  0.55230165401E-01  0.10873625073E+00 -0.14779490838E-01  0.88853383545E+00  0.88000000000E+00 0.  1.
        -11    1    4    4    0    0 -0.11679974365E-01 -0.38677193072E-01  0.82488896560E-02  0.41238966605E-01  0.51100000000E-03 0.  1.
         11    1    4    4    0    0 -0.57704973640E-01 -0.70741898615E-01  0.21240002447E-01  0.93731953076E-01  0.51100000000E-03 0. -1.
</event>
<event>
 8    1  0.1093753E+005  0.1043930E+01  0.7957747E-01            NaN
         13   -1    0    0    0    0  0.00000000000E+00  0.00000000000E+00  0.74505805969E-08  0.10566000000E+00  0.10566000000E+00 0.  1.
     999900   -1    0    0    0    0 -0.00000000000E+00 -0.00000000000E+00 -0.74505805969E-08  0.93827000000E+00  0.93827000000E+00 0. -1.
     999902    2    1    2    0    0  0.23762606756E-01  0.10190766510E-02 -0.24766878862E-02  0.10200169496E+01  0.10197366049E+01 0.  0.
     999903    2    3    3    0    0  0.12718841690E+00  0.17950451392E-01  0.29092727571E-01  0.13323614373E+00  0.20158648262E-01 0.  0.
         14    1    1    2    0    0 -0.23762606756E-01 -0.10190766510E-02  0.24766878862E-02  0.23913050411E-01  0.00000000000E+00 0. -1.
     999901    1    3    3    0    0 -0.10342581014E+00 -0.16931374741E-01 -0.31569415457E-01  0.88678080586E+00  0.88000000000E+00 0. -1.
        -11    1    4    4    0    0  0.35278640924E-01 -0.36442860413E-02  0.10684494462E-01  0.37044336532E-01  0.51100000000E-03 0.  1.
         11    1    4    4    0    0  0.91909775973E-01  0.21594737433E-01  0.18408233109E-01  0.96191807195E-01  0.51100000000E-03 0. -1.
</event>
<event>
 8    1  0.1093753E+005  0.1043930E+01  0.7957747E-01            NaN
         13   -1    0    0    0    0  0.00000000000E+00  0.00000000000E+00  0.74505805969E-08  0.10566000000E+00  0.10566000000E+00 0. -1.
     999900   -1    0    0    0    0 -0.00000000000E+00 -0.00000000000E+00 -0.74505805969E-08  0.93827000000E+00  0.93827000000E+00 0.  1.
     999902    2    1    2    0    0  0.52634827019E-02  0.90532917780E-02  0.18346984966E-01  0.10228047024E+01  0.10225865152E+01 0.  0.
     999903    2    3    3    0    0  0.90058394490E-01  0.45299659056E-01  0.87993334536E-01  0.13524930117E+00  0.19671629724E-01 0.  0.
         14    1    1    2    0    0 -0.52634827019E-02 -0.90532917780E-02 -0.18346984966E-01  0.21125297620E-01  0.00000000000E+00 0.  1.
     999901    1    3    3    0    0 -0.84794911788E-01 -0.36246367278E-01 -0.69646349569E-01  0.88755540121E+00  0.88000000000E+00 0.  1.
        -11    1    4    4    0    0  0.69652980817E-01  0.34650632863E-01  0.77953576672E-01  0.11013276230E+00  0.51100000000E-03 0. -1.
         11    1    4    4    0    0  0.20405413673E-01  0.10649026194E-01  0.10039757864E-01  0.25116538874E-01  0.51100000000E-03 0.  1.
</event>
<event>
 8    1  0.1093753E+005  0.1043930E+01  0.7957747E-01            NaN
         13   -1    0    0    0    0  0.00000000000E+00  0.00000000000E+00  0.74505805969E-08  0.10566000000E+00  0.10566000000E+00 0. -1.
     999900   -1    0    0    0    0 -0.00000000000E+00 -0.00000000000E+00 -0.74505805969E-08  0.93827000000E+00  0.93827000000E+00 0.  1.
     999902    2    1    2    0    0 -0.89005545806E-02  0.13682421820E-01  0.18982268687E-01  0.10188949233E+01  0.10185873108E+01 0.  0.
     999903    2    3    3    0    0  0.63330419134E-01  0.11174475292E+00  0.13114388433E-01  0.13048737815E+00  0.18903356267E-01 0.  0.
         14    1    1    2    0    0  0.89005545806E-02 -0.13682421820E-01 -0.18982268687E-01  0.25035076657E-01  0.00000000000E+00 0.  1.
     999901    1    3    3    0    0 -0.72230973715E-01 -0.98062331102E-01  0.58678802539E-02  0.88840754520E+00  0.88000000000E+00 0.  1.
        -11    1    4    4    0    0  0.51380052573E-01  0.10241186546E+00  0.10138396705E-01  0.11502672819E+00  0.51100000000E-03 0.  1.
         11    1    4    4    0    0  0.11950366561E-01  0.93328874655E-02  0.29759917283E-02  0.15460649959E-01  0.51100000000E-03 0. -1.
</event>
<event>
 8    1  0.1093753E+005  0.1043930E+01  0.7957747E-01            NaN
         13   -1    0    0    0    0  0.00000000000E+00  0.00000000000E+00  0.74505805969E-08  0.10566000000E+00  0.10566000000E+00 0.  1.
     999900   -1    0    0    0    0 -0.00000000000E+00 -0.00000000000E+00 -0.74505805969E-08  0.93827000000E+00  0.93827000000E+00 0.  1.
     999902    2    1    2    0    0 -0.18558294897E-01  0.14887778443E-01 -0.97381299191E-02  0.10182222690E+01  0.10178976873E+01 0.  0.
     999903    2    3    3    0    0  0.94730791217E-02  0.92294382272E-01  0.87396218641E-01  0.12905826735E+00  0.20247101307E-01 0.  0.
         14    1    1    2    0    0  0.18558294897E-01 -0.14887778443E-01  0.97381299191E-02  0.25707730953E-01  0.00000000000E+00 0. -1.
     999901    1    3    3    0    0 -0.28031374018E-01 -0.77406603829E-01 -0.97134348560E-01  0.88916400170E+00  0.88000000000E+00 0.  1.
        -11    1    4    4    0    0  0.12178394502E-01  0.60267430080E-01  0.67246875707E-01  0.91120139566E-01  0.51100000000E-03 0.  1.
         11    1    4    4    0    0 -0.27053153808E-02  0.32026952192E-01  0.20149342934E-01  0.37938127783E-01  0.51100000000E-03 0. -1.
</event>
<event>
 8    1  0.1093753E+005  0.1043930E+01  0.7957747E-01            NaN
         13   -1    0    0    0    0  0.00000000000E+00  0.00000000000E+00  0.74505805969E-08  0.10566000000E+00  0.10566000000E+00 0.  1.
     999900   -1    0    0    0    0 -0.00000000000E+00 -0.00000000000E+00 -0.74505805969E-08  0.93827000000E+00  0.93827000000E+00 0. -1.
     999902    2    1    2    0    0 -0.16115981128E-01  0.15787720303E-01 -0.12643288458E-01  0.10180682579E+01  0.10177397251E+01 0.  0.
     999903    2    3    3    0    0  0.77461814774E-02  0.99956357363E-01 -0.83306501387E-01  0.13091153449E+00  0.12107022151E-01 0.  0.
         14    1    1    2    0    0  0.16115981128E-01 -0.15787720303E-01  0.12643288458E-01  0.25861742075E-01  0.00000000000E+00 0.  1.
     999901    1    3    3    0    0 -0.23862162605E-01 -0.84168637059E-01  0.70663212929E-01  0.88715672343E+00  0.88000000000E+00 0.  1.
        -11    1    4    4    0    0  0.34441585968E-02  0.40644873353E-01 -0.26330862394E-01  0.48553510622E-01  0.51100000000E-03 0.  1.
         11    1    4    4    0    0  0.43020228806E-02  0.59311484009E-01 -0.56975638993E-01  0.82358023871E-01  0.51100000000E-03 0. -1.
</event>
<event>
 8    1  0.1093753E+005  0.1043930E+01  0.7957747E-01            NaN
         13   -1    0    0    0    0  0.00000000000E+00  0.00000000000E+00  0.74505805969E-08  0.10566000000E+00  0.10566000000E+00 0.  1.
     999900   -1    0    0    0    0 -0.00000000000E+00 -0.00000000000E+00 -0.74505805969E-08  0.93827000000E+00  0.93827000000E+00 0.  1.
     999902    2    1    2    0    0  0.12116691931E-01  0.16142600333E-01 -0.10565228689E-01  0.10211479495E+01  0.10208937814E+01 0.  0.
     999903    2    3    3    0    0  0.68812578228E-01 -0.69367297946E-01 -0.86394160945E-01  0.13194808826E+00  0.19983843525E-01 0.  0.
         14    1    1    2    0    0 -0.12116691931E-01 -0.16142600333E-01  0.10565228689E-01  0.22782050525E-01  0.00000000000E+00 0.  1.
     999901    1    3    3    0    0 -0.56695886297E-01  0.85509898279E-01  0.75828932256E-01  0.88919986122E+00  0.88000000000E+00 0. -1.
        -11    1    4    4    0    0  0.64682585327E-01 -0.55678318167E-01 -0.72130533945E-01  0.11174518785E+00  0.51100000000E-03 0. -1.
         11    1    4    4    0    0  0.41299929012E-02 -0.13688979779E-01 -0.14263627001E-01  0.20202900410E-01  0.51100000000E-03 0.  1.
</event>
<event>
 8    1  0.1093753E+005  0.1043930E+01  0.7957747E-01            NaN
         13   -1    0    0    0    0  0.00000000000E+00  0.00000000000E+00  0.74505805969E-08  0.10566000000E+00  0.10566000000E+00 0. -1.
     999900   -1    0    0    0    0 -0.00000000000E+00 -0.00000000000E+00 -0.74505805969E-08  0.93827000000E+00  0.93827000000E+00 0.  1.
     999902    2    1    2    0    0 -0.29414479309E-01  0.29439096159E-02  0.20318668198E-01  0.10080590302E+01  0.10074206082E+01 0.  0.
     999903    2    3    3    0    0 -0.11934654920E+00  0.20816906996E-01 -0.55459748815E-02  0.12291712012E+00  0.20022940778E-01 0.  0.
         14    1    1    2    0    0  0.29414479309E-01 -0.29439096159E-02 -0.20318668198E-01  0.35870969797E-01  0.00000000000E+00 0.  1.
     999901    1    3    3    0    0  0.89932069892E-01 -0.17872997380E-01  0.25864643079E-01  0.88514191009E+00  0.88000000000E+00 0. -1.
        -11    1    4    4    0    0 -0.97179682396E-01  0.21193478855E-01 -0.11025106460E-01  0.10007431394E+00  0.51100000000E-03 0.  1.
         11    1    4    4    0    0 -0.22166866804E-01 -0.37657185831E-03  0.54791315785E-02  0.22842806179E-01  0.51100000000E-03 0. -1.
</event>
<event>
 8    1  0.1093753E+005  0.1043930E+01  0.7957747E-01            NaN
         13   -1    0    0    0    0  0.00000000000E+00  0.00000000000E+00  0.74505805969E-08  0.10566000000E+00  0.10566000000E+00 0.  1.
     999900   -1    0    0    0    0 -0.00000000000E+00 -0.00000000000E+00 -0.74505805969E-08  0.93827000000E+00  0.93827000000E+00 0. -1.
     999902    2    1    2    0    0  0.18077450128E-01  0.12616283206E-01  0.11127504190E-01  0.10192361515E+01  0.10189369688E+01 0.  0.
     999903    2    3    3    0    0  0.53127274483E-01 -0.11163406998E+00  0.33963066233E-01  0.12952378035E+00  0.18391490809E-01 0.  0.
         14    1    1    2    0    0 -0.18077450128E-01 -0.12616283206E-01 -0.11127504190E-01  0.24693848517E-01  0.00000000000E+00 0. -1.
     999901    1    3    3    0    0 -0.35049824355E-01  0.12425035319E+00 -0.22835562043E-01  0.88971237113E+00  0.88000000000E+00 0. -1.
        -11    1    4    4    0    0  0.19104761959E-01 -0.34047462293E-01  0.24106456513E-02  0.39118971760E-01  0.51100000000E-03 0.  1.
         11    1    4    4    0    0  0.34022512524E-01 -0.77586607686E-01  0.31552420582E-01  0.90404808590E-01  0.51100000000E-03 0. -1.
</event>
<event>
 8    1  0.1093753E+005  0.1043930E+01  0.7957747E-01            NaN
         13   -1    0    0    0    0  0.00000000000E+00  0.00000000000E+00  0.74505805969E-08  0.10566000000E+00  0.10566000000E+00 0.  1.
     999900   -1    0    0    0    0 -0.00000000000E+00 -0.00000000000E+00 -0.74505805969E-08  0.93827000000E+00  0.93827000000E+00 0.  1.
     999902    2    1    2    0    0 -0.95320112256E-02 -0.55708386714E-02  0.21826806166E-01  0.10194697680E+01  0.10191762875E+01 0.  0.
     999903    2    3    3    0    0 -0.85455502768E-01 -0.10276612709E-01  0.98934049830E-01  0.13282888924E+00  0.21149843493E-01 0.  0.
         14    1    1    2    0    0  0.95320112256E-02  0.55708386714E-02 -0.21826806166E-01  0.24460231988E-01  0.00000000000E+00 0.  1.
     999901    1    3    3    0    0  0.75923491542E-01  0.47057740380E-02 -0.77107243665E-01  0.88664087877E+00  0.88000000000E+00 0.  1.
        -11    1    4    4    0    0 -0.78856447086E-01 -0.14817091142E-01  0.93103964051E-01  0.12290848091E+00  0.51100000000E-03 0.  1.
         11    1    4    4    0    0 -0.65990556824E-02  0.45404784322E-02  0.58300857792E-02  0.99204083326E-02  0.51100000000E-03 0. -1.
</event>
<event>
 8    1  0.1093753E+005  0.1043930E+01  0.7957747E-01            NaN
         13   -1    0    0    0    0  0.00000000000E+00  0.00000000000E+00  0.74505805969E-08  0.10566000000E+00  0.10566000000E+00 0. -1.
     999900   -1    0    0    0    0 -0.00000000000E+00 -0.00000000000E+00 -0.74505805969E-08  0.93827000000E+00  0.93827000000E+00 0.  1.
     999902    2    1    2    0    0  0.23201303994E-01  0.11789650176E-02 -0.46747731465E-02  0.10202330810E+01  0.10199578401E+01 0.  0.
     999903    2    3    3    0    0  0.11371881462E+00 -0.34317943640E-01  0.55833608859E-01  0.13281282288E+00  0.20301822306E-01 0.  0.
         14    1    1    2    0    0 -0.23201303994E-01 -0.11789650176E-02  0.46747731465E-02  0.23696918988E-01  0.00000000000E+00 0. -1.
     999901    1    3    3    0    0 -0.90517510623E-01  0.35496908658E-01 -0.60508382006E-01  0.88742025813E+00  0.88000000000E+00 0.  1.
        -11    1    4    4    0    0  0.13449603842E-01 -0.11328282765E-01  0.69248947315E-02  0.18906007562E-01  0.51100000000E-03 0.  1.
         11    1    4    4    0    0  0.10026921078E+00 -0.22989660875E-01  0.48908714128E-01  0.11390681532E+00  0.51100000000E-03 0. -1.
</event>
<event>
 8    1  0.1093753E+005  0.1043930E+01  0.7957747E-01            NaN
         13   -1    0    0    0    0  0.00000000000E+00  0.00000000000E+00  0.74505805969E-08  0.10566000000E+00  0.10566000000E+00 0.  1.
     999900   -1    0    0    0    0 -0.00000000000E+00 -0.00000000000E+00 -0.74505805969E-08  0.93827000000E+00  0.93827000000E+00 0. -1.
     999902    2    1    2    0    0  0.17990792513E-01  0.23991611312E-02 -0.16204642289E-01  0.10195986412E+01  0.10193082822E+01 0.  0.
     999903    2    3    3    0    0  0.95105794461E-01 -0.33648243754E-01 -0.83973497720E-01  0.13289758859E+00  0.20806352082E-01 0.  0.
         14    1    1    2    0    0 -0.17990792513E-01 -0.23991611312E-02  0.16204642289E-01  0.24331358801E-01  0.00000000000E+00 0.  1.
     999901    1    3    3    0    0 -0.77115001949E-01  0.36047404885E-01  0.67768855431E-01  0.88670105261E+00  0.88000000000E+00 0.  1.
        -11    1    4    4    0    0  0.44179136708E-01 -0.85924323523E-02 -0.27054599635E-01  0.52515126358E-01  0.51100000000E-03 0.  1.
         11    1    4    4    0    0  0.50926657753E-01 -0.25055811402E-01 -0.56918898085E-01  0.80382462236E-01  0.51100000000E-03 0. -1.
</event>
<event>
 8    1  0.1093753E+005  0.1043930E+01  0.7957747E-01            NaN
         13   -1    0    0    0    0  0.00000000000E+00  0.00000000000E+00  0.74505805969E-08  0.10566000000E+00  0.10566000000E+00 0. -1.
     999900   -1    0    0    0    0 -0.00000000000E+00 -0.00000000000E+00 -0.74505805969E-08  0.93827000000E+00  0.93827000000E+00 0.  1.
     999902    2    1    2    0    0  0.20888147284E-03 -0.17202382015E-01  0.17710952655E-01  0.10192390417E+01  0.10189399299E+01 0.  0.
     999903    2    3    3    0    0  0.11792626678E+00 -0.24786889755E-01 -0.42049492655E-01  0.12935915182E+00  0.21086394390E-01 0.  0.
         14    1    1    2    0    0 -0.20888147284E-03  0.17202382015E-01 -0.17710952655E-01  0.24690958313E-01  0.00000000000E+00 0.  1.
     999901    1    3    3    0    0 -0.11771738530E+00  0.75845077406E-02  0.59760445310E-01  0.88987988986E+00  0.88000000000E+00 0. -1.
        -11    1    4    4    0    0  0.10517247036E+00 -0.18664081380E-01 -0.30491836591E-01  0.11108379574E+00  0.51100000000E-03 0. -1.
         11    1    4    4    0    0  0.12753796416E-01 -0.61228083757E-02 -0.11557656064E-01  0.18275356087E-01  0.51100000000E-03 0.  1.
</event>
<event>
 8    1  0.1093753E+005  0.1043930E+01  0.7957747E-01            NaN
         13   -1    0    0    0    0  0.00000000000E+00  0.00000000000E+00  0.74505805969E-08  0.10566000000E+00  0.10566000000E+00 0. -1.
     999900   -1    0    0    0    0 -0.00000000000E+00 -0.00000000000E+00 -0.74505805969E-08  0.93827000000E+00  0.93827000000E+00 0.  1.
     999902    2    1    2    0    0 -0.23501472075E-02  0.21427947394E-01 -0.11132912641E-01  0.10196684694E+01  0.10193797946E+01 0.  0.
     999903    2    3    3    0    0 -0.44163982570E-01 -0.78282016426E-01  0.88305684802E-01  0.12749219292E+00  0.19437948338E-01 0.  0.
         14    1    1    2    0    0  0.23501472075E-02 -0.21427947394E-01  0.11132912641E-01  0.24261530564E-01  0.00000000000E+00 0. -1.
     999901    1    3    3    0    0  0.41813835363E-01  0.99709963821E-01 -0.99438597442E-01  0.89217627651E+00  0.88000000000E+00 0.  1.
        -11    1    4    4    0    0 -0.31002523310E-01 -0.36367482318E-01  0.41479921650E-01  0.63281871361E-01  0.51100000000E-03 0.  1.
         11    1    4    4    0    0 -0.13161459260E-01 -0.41914534108E-01  0.46825763151E-01  0.64210321562E-01  0.51100000000E-03 0. -1.
</event>
<event>
 8    1  0.1093753E+005  0.1043930E+01  0.7957747E-01            NaN
         13   -1    0    0    0    0  0.00000000000E+00  0.00000000000E+00  0.74505805969E-08  0.10566000000E+00  0.10566000000E+00 0.  1.
     999900   -1    0    0    0    0 -0.00000000000E+00 -0.00000000000E+00 -0.74505805969E-08  0.93827000000E+00  0.93827000000E+00 0. -1.
     999902    2    1    2    0    0  0.26466153207E-01  0.20016761605E-02  0.78795587442E-02  0.10162433350E+01  0.10158661154E+01 0.  0.
     999903    2    3    3    0    0  0.82860113899E-01  0.84689072790E-01 -0.46510888578E-01  0.12890134618E+00  0.20353298606E-01 0.  0.
         14    1    1    2    0    0 -0.26466153207E-01 -0.20016761605E-02 -0.78795587442E-02  0.27686665004E-01  0.00000000000E+00 0. -1.
     999901    1    3    3    0    0 -0.56393960692E-01 -0.82687396630E-01  0.54390447323E-01  0.88734198882E+00  0.88000000000E+00 0.  1.
        -11    1    4    4    0    0  0.23013340388E-01  0.15993039312E-01 -0.18493778821E-01  0.33580829626E-01  0.51100000000E-03 0.  1.
         11    1    4    4    0    0  0.59846773511E-01  0.68696033478E-01 -0.28017109758E-01  0.95320516550E-01  0.51100000000E-03 0. -1.
</event>
<event>
 8    1  0.1093753E+005  0.1043930E+01  0.7957747E-01            NaN
         13   -1    0    0    0    0  0.00000000000E+00  0.00000000000E+00  0.74505805969E-08  0.10566000000E+00  0.10566000000E+00 0.  1.
     999900   -1    0    0    0    0 -0.00000000000E+00 -0.00000000000E+00 -0.74505805969E-08  0.93827000000E+00  0.93827000000E+00 0. -1.
     999902    2    1    2    0    0 -0.31578949887E-02 -0.27995498147E-01 -0.13768069318E-01  0.10125727050E+01  0.10120870531E+01 0.  0.
     999903    2    3    3    0    0 -0.70041210322E-01  0.96785760615E-01  0.50376756462E-03  0.12114271574E+00  0.20051164430E-01 0.  0.
         14    1    1    2    0    0  0.31578949887E-02  0.27995498147E-01  0.13768069318E-01  0.31357295004E-01  0.00000000000E+00 0.  1.
     999901    1    3    3    0    0  0.66883315333E-01 -0.12478125876E+00 -0.14271836883E-01  0.89142998925E+00  0.88000000000E+00 0.  1.
        -11    1    4    4    0    0 -0.40351722233E-02  0.13552234772E-01  0.44690251919E-02  0.14838429477E-01  0.51100000000E-03 0.  1.
         11    1    4    4    0    0 -0.66006038099E-01  0.83233525843E-01 -0.39652576273E-02  0.10630428627E+00  0.51100000000E-03 0. -1.
</event>
<event>
 8    1  0.1093753E+005  0.1043930E+01  0.7957747E-01            NaN
         13   -1    0    0    0    0  0.00000000000E+00  0.00000000000E+00  0.74505805969E-08  0.10566000000E+00  0.10566000000E+00 0.  1.
     999900   -1    0    0    0    0 -0.00000000000E+00 -0.00000000000E+00 -0.74505805969E-08  0.93827000000E+00  0.93827000000E+00 0. -1.
     999902    2    1    2    0    0  0.12562282982E-01  0.15351162729E-01  0.13309772096E-01  0.10200423634E+01  0.10197626213E+01 0.  0.
     999903    2    3    3    0    0  0.86728195272E-01 -0.59698364471E-01  0.76378933476E-01  0.13149819834E+00  0.19296634741E-01 0.  0.
         14    1    1    2    0    0 -0.12562282982E-01 -0.15351162729E-01 -0.13309772096E-01  0.23887636637E-01  0.00000000000E+00 0.  1.
     999901    1    3    3    0    0 -0.74165912290E-01  0.75049527199E-01 -0.63069161379E-01  0.88854416502E+00  0.88000000000E+00 0. -1.
        -11    1    4    4    0    0  0.10054270366E-01 -0.36568041685E-03  0.78878843546E-02  0.12794604932E-01  0.51100000000E-03 0. -1.
         11    1    4    4    0    0  0.76673924906E-01 -0.59332684054E-01  0.68491049121E-01  0.11870359341E+00  0.51100000000E-03 0.  1.
</event>
<event>
 8    1  0.1093753E+005  0.1043930E+01  0.7957747E-01            NaN
         13   -1    0    0    0    0  0.00000000000E+00  0.00000000000E+00  0.74505805969E-08  0.10566000000E+00  0.10566000000E+00 0.  1.
     999900   -1    0    0    0    0 -0.00000000000E+00 -0.00000000000E+00 -0.74505805969E-08  0.93827000000E+00  0.93827000000E+00 0. -1.
     999902    2    1    2    0    0 -0.20428370319E-01 -0.11396463342E-01 -0.61229624246E-02  0.10197496700E+01  0.10194629474E+01 0.  0.
     999903    2    3    3    0    0 -0.90191295850E-01  0.86279099070E-01 -0.34985077787E-01  0.13113254041E+00  0.19830146346E-01 0.  0.
         14    1    1    2    0    0  0.20428370319E-01  0.11396463342E-01  0.61229624246E-02  0.24180330011E-01  0.00000000000E+00 0.  1.
     999901    1    3    3    0    0  0.69762925531E-01 -0.97675562411E-01  0.28862115363E-01  0.88861712958E+00  0.88000000000E+00 0.  1.
        -11    1    4    4    0    0 -0.33785637959E-01  0.36555034825E-01 -0.23562962011E-01  0.55074623948E-01  0.51100000000E-03 0.  1.
         11    1    4    4    0    0 -0.56405657892E-01  0.49724064245E-01 -0.11422115776E-01  0.76057916465E-01  0.51100000000E-03 0. -1.
</event>
<event>
 8    1  0.1093753E+005  0.1043930E+01  0.7957747E-01            NaN
         13   -1    0    0    0    0  0.00000000000E+00  0.00000000000E+00  0.74505805969E-08  0.10566000000E+00  0.10566000000E+00 0.  1.
     999900   -1    0    0    0    0 -0.00000000000E+00 -0.00000000000E+00 -0.74505805969E-08  0.93827000000E+00  0.93827000000E+00 0. -1.
     999902    2    1    2    0    0 -0.10769646545E-01  0.21247161778E-01  0.77627809303E-03  0.10200966247E+01  0.10198181671E+01 0.  0.
     999903    2    3    3    0    0  0.75210118020E-01  0.68825350339E-01  0.80008073824E-01  0.13108937985E+00  0.19739375161E-01 0.  0.
         14    1    1    2    0    0  0.10769646545E-01 -0.21247161778E-01 -0.77627809303E-03  0.23833375296E-01  0.00000000000E+00 0. -1.
     999901    1    3    3    0    0 -0.85979764564E-01 -0.47578188561E-01 -0.79231795731E-01  0.88900724485E+00  0.88000000000E+00 0. -1.
        -11    1    4    4    0    0  0.29399631601E-01  0.17829431217E-01  0.35097175627E-01  0.49135524967E-01  0.51100000000E-03 0. -1.
         11    1    4    4    0    0  0.45810486419E-01  0.50995919122E-01  0.44910898197E-01  0.81953854887E-01  0.51100000000E-03 0.  1.
</event>
<event>
 8    1  0.1093753E+005  0.1043930E+01  0.7957747E-01            NaN
         13   -1    0    0    0    0  0.00000000000E+00  0.00000000000E+00  0.74505805969E-08  0.10566000000E+00  0.10566000000E+00 0. -1.
     999900   -1    0    0    0    0 -0.00000000000E+00 -0.00000000000E+00 -0.74505805969E-08  0.93827000000E+00  0.93827000000E+00 0. -1.
     999902    2    1    2    0    0  0.12772086663E-01  0.35516767216E-02 -0.21978934761E-01  0.10182626242E+01  0.10179390737E+01 0.  0.
     999903    2    3    3    0    0 -0.42568502728E-01  0.49332620478E-01 -0.11157756749E+00  0.13080198250E+00  0.20342570925E-01 0.  0.
         14    1    1    2    0    0 -0.12772086663E-01 -0.35516767216E-02  0.21978934761E-01  0.25667375762E-01  0.00000000000E+00 0. -1.
     999901    1    3    3    0    0  0.55340589391E-01 -0.45780943756E-01  0.89598632727E-01  0.88746064174E+00  0.88000000000E+00 0.  1.
        -11    1    4    4    0    0 -0.22900405424E-01  0.15828516868E-01 -0.33256566779E-01  0.43373158401E-01  0.51100000000E-03 0. -1.
         11    1    4    4    0    0 -0.19668097305E-01  0.33504103610E-01 -0.78321000710E-01  0.87428824100E-01  0.51100000000E-03 0.  1.
</event>
<event>
 8    1  0.1093753E+005  0.1043930E+01  0.7957747E-01            NaN
         13   -1    0    0    0    0  0.00000000000E+00  0.00000000000E+00  0.74505805969E-08  0.10566000000E+00  0.10566000000E+00 0. -1.
     999900   -1    0    0    0    0 -0.00000000000E+00 -0.00000000000E+00 -0.74505805969E-08  0.93827000000E+00  0.93827000000E+00 0.  1.
     999902    2    1    2    0    0 -0.39891690980E-02  0.17431459380E-01  0.14527509630E-01  0.10208905169E+01  0.10206305060E+01 0.  0.
     999903    2    3    3    0    0 -0.60203660318E-01  0.66185099506E-01 -0.93754750783E-01  0.13113659901E+00  0.20047598202E-01 0.  0.
         14    1    1    2    0    0  0.39891690980E-02 -0.17431459380E-01 -0.14527509630E-01  0.23039483116E-01  0.00000000000E+00 0. -1.
     999901    1    3    3    0    0  0.56214491220E-01 -0.48753640126E-01  0.10828226041E+00  0.88975391787E+00  0.88000000000E+00 0.  1.
        -11    1    4    4    0    0 -0.13336934799E-01  0.15159778963E-01 -0.34461692070E-01  0.39944487346E-01  0.51100000000E-03 0. -1.
         11    1    4    4    0    0 -0.46866725520E-01  0.51025320543E-01 -0.59293058712E-01  0.91192111665E-01  0.51100000000E-03 0.  1.
</event>
<event>
 8    1  0.1093753E+005  0.1043930E+01  0.7957747E-01            NaN
         13   -1    0    0    0    0  0.00000000000E+00  0.00000000000E+00  0.74505805969E-08  0.10566000000E+00  0.10566000000E+00 0.  1.
     999900   -1    0    0    0    0 -0.00000000000E+00 -0.00000000000E+00 -0.74505805969E-08  0.93827000000E+00  0.93827000000E+00 0.  1.
     999902    2    1    2    0    0 -0.14818808303E-01 -0.12616656475E-01  0.14070412061E-01  0.10199143052E+01  0.10196315199E+01 0.  0.
     999903    2    3    3    0    0  0.82843129519E-01 -0.90798562191E-01 -0.36113268097E-01  0.12965104852E+00  0.19946509597E-01 0.  0.
         14    1    1    2    0    0  0.14818808303E-01  0.12616656475E-01 -0.14070412061E-01  0.24015694778E-01  0.00000000000E+00 0. -1.
     999901    1    3    3    0    0 -0.97661937821E-01  0.78181905716E-01  0.50183680158E-01  0.89026325670E+00  0.88000000000E+00 0.  1.
        -11    1    4    4    0    0  0.40569732294E-01 -0.31554423741E-01 -0.19676602031E-01  0.55036484485E-01  0.51100000000E-03 0. -1.
         11    1    4    4    0    0  0.42273397225E-01 -0.59244138450E-01 -0.16436666066E-01  0.74614564034E-01  0.51100000000E-03 0.  1.
</event>
<event>
 8    1  0.1093753E+005  0.1043930E+01  0.7957747E-01            NaN
         13   -1    0    0    0    0  0.00000000000E+00  0.00000000000E+00  0.74505805969E-08  0.10566000000E+00  0.10566000000E+00 0. -1.
     999900   -1    0    0    0    0 -0.00000000000E+00 -0.00000000000E+00 -0.74505805969E-08  0.93827000000E+00  0.93827000000E+00 0. -1.
     999902    2    1    2    0    0  0.20125776759E-01  0.98340712812E-02 -0.91600394676E-02  0.10197295419E+01  0.10194423360E+01 0.  0.
     999903    2    3    3    0    0 -0.53775687443E-01 -0.35108367049E-01  0.10850606674E+00  0.12769447438E+00  0.20196293487E-01 0.  0.
         14    1    1    2    0    0 -0.20125776759E-01 -0.98340712812E-02  0.91600394676E-02  0.24200458077E-01  0.00000000000E+00 0. -1.
     999901    1    3    3    0    0  0.73901464202E-01  0.44942438331E-01 -0.11766610621E+00  0.89203506754E+00  0.88000000000E+00 0. -1.
        -11    1    4    4    0    0 -0.33017594850E-01 -0.32522254621E-01  0.72451214556E-01  0.86007547500E-01  0.51100000000E-03 0. -1.
         11    1    4    4    0    0 -0.20758092592E-01 -0.25861124288E-02  0.36054852186E-01  0.41686926880E-01  0.51100000000E-03 0.  1.
</event>
<event>
 8    1  0.1093753E+005  0.1043930E+01  0.7957747E-01            NaN
         13   -1    0    0    0    0  0.00000000000E+00  0.00000000000E+00  0.74505805969E-08  0.10566000000E+00  0.10566000000E+00 0. -1.
     999900   -1    0    0    0    0 -0.00000000000E+00 -0.00000000000E+00 -0.74505805969E-08  0.93827000000E+00  0.93827000000E+00 0. -1.
     999902    2    1    2    0    0  0.18400039818E-01  0.38212594195E-03  0.14046312600E-01  0.10207781883E+01  0.10205156066E+01 0.  0.
     999903    2    3    3    0    0 -0.67543128231E-02  0.12816960908E+00 -0.15358190375E-01  0.13070683890E+00  0.19373546114E-01 0.  0.
         14    1    1    2    0    0 -0.18400039818E-01 -0.38212594195E-03 -0.14046312600E-01  0.23151811661E-01  0.00000000000E+00 0.  1.
     999901    1    3    3    0    0  0.25154352641E-01 -0.12778748314E+00  0.29404502975E-01  0.89007134944E+00  0.88000000000E+00 0.  1.
        -11    1    4    4    0    0 -0.34658372828E-02  0.62240777051E-01  0.22708578780E-02  0.62380640206E-01  0.51100000000E-03 0. -1.
         11    1    4    4    0    0 -0.32884755404E-02  0.65928832029E-01 -0.17629048253E-01  0.68326198690E-01  0.51100000000E-03 0.  1.
</event>
<event>
 8    1  0.1093753E+005  0.1043930E+01  0.7957747E-01            NaN
         13   -1    0    0    0    0  0.00000000000E+00  0.00000000000E+00  0.74505805969E-08  0.10566000000E+00  0.10566000000E+00 0.  1.
     999900   -1    0    0    0    0 -0.00000000000E+00 -0.00000000000E+00 -0.74505805969E-08  0.93827000000E+00  0.93827000000E+00 0. -1.
     999902    2    1    2    0    0 -0.22414480531E-01  0.65782295454E-02  0.72311644512E-02  0.10194765385E+01  0.10191832223E+01 0.  0.
     999903    2    3    3    0    0 -0.84650353740E-01  0.64231628962E-01 -0.74923246698E-01  0.13158771342E+00  0.20259538005E-01 0.  0.
         14    1    1    2    0    0  0.22414480531E-01 -0.65782295454E-02 -0.72311644512E-02  0.24453461528E-01  0.00000000000E+00 0. -1.
     999901    1    3    3    0    0  0.62235873209E-01 -0.57653399416E-01  0.82154411149E-01  0.88788882505E+00  0.88000000000E+00 0.  1.
        -11    1    4    4    0    0 -0.55739494925E-01  0.32099918489E-01 -0.51649417040E-01  0.82493754085E-01  0.51100000000E-03 0.  1.
         11    1    4    4    0    0 -0.28910858815E-01  0.32131710472E-01 -0.23273829658E-01  0.49093959335E-01  0.51100000000E-03 0. -1.
</event>
<event>
 8    1  0.1093753E+005  0.1043930E+01  0.7957747E-01            NaN
         13   -1    0    0    0    0  0.00000000000E+00  0.00000000000E+00  0.74505805969E-08  0.10566000000E+00  0.10566000000E+00 0. -1.
     999900   -1    0    0    0    0 -0.00000000000E+00 -0.00000000000E+00 -0.74505805969E-08  0.93827000000E+00  0.93827000000E+00 0.  1.
     999902    2    1    2    0    0  0.80716323313E-02  0.21510584288E-01  0.68177279988E-02  0.10199646521E+01  0.10196830653E+01 0.  0.
     999903    2    3    3    0    0  0.10541554743E+00  0.11175849835E-01  0.75825947680E-01  0.13185160810E+00  0.19948307093E-01 0.  0.
         14    1    1    2    0    0 -0.80716323313E-02 -0.21510584288E-01 -0.68177279988E-02  0.23965347900E-01  0.00000000000E+00 0. -1.
     999901    1    3    3    0    0 -0.97343915103E-01  0.10334734453E-01 -0.69008219681E-01  0.88811304400E+00  0.88000000000E+00 0.  1.
        -11    1    4    4    0    0  0.73595862382E-01  0.14943784753E-01  0.45965008885E-01  0.88049479416E-01  0.51100000000E-03 0. -1.
         11    1    4    4    0    0  0.31819685052E-01 -0.37679349174E-02  0.29860938794E-01  0.43802128682E-01  0.51100000000E-03 0.  1.
</event>
<event>
 8    1  0.1093753E+005  0.1043930E+01  0.7957747E-01            NaN
         13   -1    0    0    0    0  0.00000000000E+00  0.00000000000E+00  0.74505805969E-08  0.10566000000E+00  0.10566000000E+00 0.  1.
     999900   -1    0    0    0    0 -0.00000000000E+00 -0.00000000000E+00 -0.74505805969E-08  0.93827000000E+00  0.93827000000E+00 0. -1.
     999902    2    1    2    0    0 -0.22130921455E-02 -0.49858434321E-02 -0.21019749145E-01  0.10222139629E+01  0.10219832678E+01 0.  0.
     999903    2    3    3    0    0  0.63132262289E-01 -0.69337154660E-01 -0.93435745320E-01  0.13448924034E+00  0.23744340516E-01 0.  0.
         14    1    1    2    0    0  0.22130921455E-02  0.49858434321E-02  0.21019749145E-01  0.21716037062E-01  0.00000000000E+00 0.  1.
     999901    1    3    3    0    0 -0.65345354434E-01  0.64351311228E-01  0.72415996176E-01  0.88772472259E+00  0.88000000000E+00 0.  1.
        -11    1    4    4    0    0  0.21524695164E-01 -0.35373681128E-01 -0.52991609179E-01  0.67253115786E-01  0.51100000000E-03 0.  1.
         11    1    4    4    0    0  0.41607567124E-01 -0.33963473532E-01 -0.40444136141E-01  0.67236124558E-01  0.51100000000E-03 0. -1.
</event>
<event>
 8    1  0.1093753E+005  0.1043930E+01  0.7957747E-01            NaN
         13   -1    0    0    0    0  0.00000000000E+00  0.00000000000E+00  0.74505805969E-08  0.10566000000E+00  0.10566000000E+00 0.  1.
     999900   -1    0    0    0    0 -0.00000000000E+00 -0.00000000000E+00 -0.74505805969E-08  0.93827000000E+00  0.93827000000E+00 0. -1.
     999902    2    1    2    0    0 -0.22662339835E-01  0.49093928774E-02  0.53265242644E-02  0.10201380760E+01  0.10198605976E+01 0.  0.
     999903    2    3    3    0    0  0.53239433084E-01  0.11675009075E+00  0.12473391228E-01  0.12978954959E+00  0.14990689409E-01 0.  0.
         14    1    1    2    0    0  0.22662339835E-01 -0.49093928774E-02 -0.53265242644E-02  0.23791923965E-01  0.00000000000E+00 0. -1.
     999901    1    3    3    0    0 -0.75901772918E-01 -0.11184069787E+00 -0.71468669631E-02  0.89034852644E+00  0.88000000000E+00 0. -1.
        -11    1    4    4    0    0  0.45759030208E-01  0.10752147129E+00  0.81541874665E-02  0.11713883868E+00  0.51100000000E-03 0.  1.
         11    1    4    4    0    0  0.74804028753E-02  0.92286194612E-02  0.43192037611E-02  0.12650710907E-01  0.51100000000E-03 0. -1.
</event>
<event>
 8    1  0.1093753E+005  0.1043930E+01  0.7957747E-01            NaN
         13   -1    0    0    0    0  0.00000000000E+00  0.00000000000E+00  0.74505805969E-08  0.10566000000E+00  0.10566000000E+00 0.  1.
     999900   -1    0    0    0    0 -0.00000000000E+00 -0.00000000000E+00 -0.74505805969E-08  0.93827000000E+00  0.93827000000E+00 0. -1.
     999902    2    1    2    0    0 -0.19315844033E-01 -0.12688322990E-01  0.61599861225E-03  0.10208112884E+01  0.10205494656E+01 0.  0.
     999903    2    3    3    0    0 -0.14779258297E-01 -0.77385890365E-01  0.10456002721E+00  0.13232340616E+00  0.19227116919E-01 0.  0.
         14    1    1    2    0    0  0.19315844033E-01  0.12688322990E-01 -0.61599861225E-03  0.23118711584E-01  0.00000000000E+00 0. -1.
     999901    1    3    3    0    0 -0.45365857358E-02  0.64697567375E-01 -0.10394402859E+00  0.88848788226E+00  0.88000000000E+00 0. -1.
        -11    1    4    4    0    0  0.38713210052E-02 -0.28338328257E-01  0.35707266672E-01  0.45752792143E-01  0.51100000000E-03 0.  1.
         11    1    4    4    0    0 -0.18650579302E-01 -0.49047562108E-01  0.68852760535E-01  0.86570614018E-01  0.51100000000E-03 0. -1.
</event>
<event>
 8    1  0.1093753E+005  0.1043930E+01  0.7957747E-01            NaN
         13   -1    0    0    0    0  0.00000000000E+00  0.00000000000E+00  0.74505805969E-08  0.10566000000E+00  0.10566000000E+00 0. -1.
     999900   -1    0    0    0    0 -0.00000000000E+00 -0.00000000000E+00 -0.74505805969E-08  0.93827000000E+00  0.93827000000E+00 0.  1.
     999902    2    1    2    0    0 -0.11700324085E-01  0.75241317570E-02  0.18235831799E-01  0.10209940957E+01  0.10207364439E+01 0.  0.
     999903    2    3    3    0    0 -0.18795996960E-01  0.32009663008E-01  0.12716576826E+00  0.13391144973E+00  0.19576407331E-01 0.  0.
         14    1    1    2    0    0  0.11700324085E-01 -0.75241317570E-02 -0.18235831799E-01  0.22935904251E-01  0.00000000000E+00 0.  1.
     999901    1    3    3    0    0  0.70956728748E-02 -0.24485531251E-01 -0.10892993646E+00  0.88708264602E+00  0.88000000000E+00 0.  1.
        -11    1    4    4    0    0 -0.13201624288E-01  0.25631685419E-01  0.11773942537E+00  0.12121922120E+00  0.51100000000E-03 0.  1.
         11    1    4    4    0    0 -0.55943726717E-02  0.63779775890E-02  0.94263428869E-02  0.12692228525E-01  0.51100000000E-03 0. -1.
</event>
<event>
 8    1  0.1093753E+005  0.1043930E+01  0.7957747E-01            NaN
         13   -1    0    0    0    0  0.00000000000E+00  0.00000000000E+00  0.74505805969E-08  0.10566000000E+00  0.10566000000E+00 0. -1.
     999900   -1    0    0    0    0 -0.00000000000E+00 -0.00000000000E+00 -0.74505805969E-08  0.93827000000E+00  0.93827000000E+00 0.  1.
     999902    2    1    2    0    0  0.15984283870E-01  0.15472779954E-01  0.63368026946E-02  0.10207986507E+01  0.10205365383E+01 0.  0.
     999903    2    3    3    0    0 -0.12050545727E-01 -0.11413993817E+00 -0.54878223217E-01  0.12876014946E+00  0.19859898458E-01 0.  0.
         14    1    1    2    0    0 -0.15984283870E-01 -0.15472779954E-01 -0.63368026946E-02  0.23131349263E-01  0.00000000000E+00 0.  1.
     999901    1    3    3    0    0  0.28034829596E-01  0.12961271812E+00  0.61215025912E-01  0.89203850128E+00  0.88000000000E+00 0.  1.
        -11    1    4    4    0    0 -0.12273650609E-01 -0.58159650206E-01 -0.19609418846E-01  0.62593752402E-01  0.51100000000E-03 0. -1.
         11    1    4    4    0    0  0.22310488219E-03 -0.55980287964E-01 -0.35268804371E-01  0.66166397054E-01  0.51100000000E-03 0.  1.
</event>
<event>
 8    1  0.1093753E+005  0.1043930E+01  0.7957747E-01            NaN
         13   -1    0    0    0    0  0.00000000000E+00  0.00000000000E+00  0.74505805969E-08  0.10566000000E+00  0.10566000000E+00 0.  1.
     999900   -1    0    0    0    0 -0.00000000000E+00 -0.00000000000E+00 -0.74505805969E-08  0.93827000000E+00  0.93827000000E+00 0.  1.
     999902    2    1    2    0    0  0.20861919008E-01  0.14504950520E-01 -0.35469169332E-02  0.10182747106E+01  0.10179514686E+01 0.  0.
     999903    2    3    3    0    0  0.10170916732E-02  0.12655236109E+00 -0.26060882771E-01  0.13066256668E+00  0.19416543146E-01 0.  0.
         14    1    1    2    0    0 -0.20861919008E-01 -0.14504950520E-01  0.35469169332E-02  0.25655289397E-01  0.00000000000E+00 0.  1.
     999901    1    3    3    0    0  0.19844827335E-01 -0.11204741057E+00  0.22513965838E-01  0.88761214393E+00  0.88000000000E+00 0.  1.
        -11    1    4    4    0    0 -0.46021373366E-03  0.85276120662E-01 -0.26670808916E-01  0.89352234002E-01  0.51100000000E-03 0. -1.
         11    1    4    4    0    0  0.14773054068E-02  0.41276240425E-01  0.60992614464E-03  0.41310332676E-01  0.51100000000E-03 0.  1.
</event>
<event>
 8    1  0.1093753E+005  0.1043930E+01  0.7957747E-01            NaN
         13   -1    0    0    0    0  0.00000000000E+00  0.00000000000E+00  0.74505805969E-08  0.10566000000E+00  0.10566000000E+00 0.  1.
     999900   -1    0    0    0    0 -0.00000000000E+00 -0.00000000000E+00 -0.74505805969E-08  0.93827000000E+00  0.93827000000E+00 0. -1.
     999902    2    1    2    0    0  0.25546727026E-01 -0.54442762880E-04 -0.19538670324E-01  0.10117679437E+01  0.10112566312E+01 0.  0.
     999903    2    3    3    0    0  0.18896609039E-01  0.63124184451E-01 -0.10475155658E+00  0.12537243438E+00  0.20090151827E-01 0.  0.
         14    1    1    2    0    0 -0.25546727026E-01  0.54442762880E-04  0.19538670324E-01  0.32162056274E-01  0.00000000000E+00 0.  1.
     999901    1    3    3    0    0  0.66501179872E-02 -0.63178627214E-01  0.85212886256E-01  0.88639550935E+00  0.88000000000E+00 0.  1.
        -11    1    4    4    0    0  0.15998116479E-01  0.26564032133E-01 -0.36559949193E-01  0.47942450292E-01  0.51100000000E-03 0. -1.
         11    1    4    4    0    0  0.28984925597E-02  0.36560152319E-01 -0.68191607387E-01  0.77429984087E-01  0.51100000000E-03 0.  1.
</event>
<event>
 8    1  0.1093753E+005  0.1043930E+01  0.7957747E-01            NaN
         13   -1    0    0    0    0  0.00000000000E+00  0.00000000000E+00  0.74505805969E-08  0.10566000000E+00  0.10566000000E+00 0. -1.
     999900   -1    0    0    0    0 -0.00000000000E+00 -0.00000000000E+00 -0.74505805969E-08  0.93827000000E+00  0.93827000000E+00 0.  1.
     999902    2    1    2    0    0  0.18089267690E-01 -0.92543341227E-02 -0.12110980665E-01  0.10202753988E+01  0.10200011516E+01 0.  0.
     999903    2    3    3    0    0 -0.27400925807E-01 -0.80608642468E-01 -0.98815257511E-01  0.13197453386E+00  0.20106180488E-01 0.  0.
         14    1    1    2    0    0 -0.18089267690E-01  0.92543341227E-02  0.12110980665E-01  0.23654601208E-01  0.00000000000E+00 0. -1.
     999901    1    3    3    0    0  0.45490193497E-01  0.71354308345E-01  0.86704276846E-01  0.88830086494E+00  0.88000000000E+00 0. -1.
        -11    1    4    4    0    0 -0.12436373291E-01 -0.15023152846E-01 -0.29616175967E-01  0.35464595049E-01  0.51100000000E-03 0.  1.
         11    1    4    4    0    0 -0.14964552517E-01 -0.65585489622E-01 -0.69199081544E-01  0.96509938807E-01  0.51100000000E-03 0. -1.
</event>
<event>
 8    1  0.1093753E+005  0.1043930E+01  0.7957747E-01            NaN
         13   -1    0    0    0    0  0.00000000000E+00  0.00000000000E+00  0.74505805969E-08  0.10566000000E+00  0.10566000000E+00 0. -1.
     999900   -1    0    0    0    0 -0.00000000000E+00 -0.00000000000E+00 -0.74505805969E-08  0.93827000000E+00  0.93827000000E+00 0. -1.
     999902    2    1    2    0    0  0.26336282428E-01  0.63712480760E-02  0.15131811407E-02  0.10167917928E+01  0.10164295684E+01 0.  0.
     999903    2    3    3    0    0  0.84547653264E-03  0.10608870549E+00 -0.69083253932E-01  0.12798517200E+00  0.18766459787E-01 0.  0.
         14    1    1    2    0    0 -0.26336282428E-01 -0.63712480760E-02 -0.15131811407E-02  0.27138207224E-01  0.00000000000E+00 0. -1.
     999901    1    3    3    0    0  0.25490805895E-01 -0.99717457417E-01  0.70596435073E-01  0.88880662078E+00  0.88000000000E+00 0.  1.
        -11    1    4    4    0    0 -0.10706618852E-02  0.21349805176E-01 -0.23391924327E-01  0.31692329398E-01  0.51100000000E-03 0.  1.
         11    1    4    4    0    0  0.19161384179E-02  0.84738900317E-01 -0.45691329605E-01  0.96292842597E-01  0.51100000000E-03 0. -1.
</event>
<event>
 8    1  0.1093753E+005  0.1043930E+01  0.7957747E-01            NaN
         13   -1    0    0    0    0  0.00000000000E+00  0.00000000000E+00  0.74505805969E-08  0.10566000000E+00  0.10566000000E+00 0. -1.
     999900   -1    0    0    0    0 -0.00000000000E+00 -0.00000000000E+00 -0.74505805969E-08  0.93827000000E+00  0.93827000000E+00 0.  1.
     999902    2    1    2    0    0  0.39569471639E-02 -0.19040042136E-01 -0.12805964725E-01  0.10206453834E+01  0.10203797457E+01 0.  0.
     999903    2    3    3    0    0  0.56412336331E-01 -0.48605773685E-01 -0.10863528545E+00  0.13339741414E+00  0.21174794631E-01 0.  0.
         14    1    1    2    0    0 -0.39569471639E-02  0.19040042136E-01  0.12805964725E-01  0.23284616551E-01  0.00000000000E+00 0. -1.
     999901    1    3    3    0    0 -0.52455389167E-01  0.29565731549E-01  0.95829320727E-01  0.88724796931E+00  0.88000000000E+00 0. -1.
        -11    1    4    4    0    0  0.46531405661E-01 -0.28319041114E-01 -0.70649592146E-01  0.89211915089E-01  0.51100000000E-03 0. -1.
         11    1    4    4    0    0  0.98809306699E-02 -0.20286732570E-01 -0.37985693306E-01  0.44185499049E-01  0.51100000000E-03 0.  1.
</event>
<event>
 8    1  0.1093753E+005  0.1043930E+01  0.7957747E-01            NaN
         13   -1    0    0    0    0  0.00000000000E+00  0.00000000000E+00  0.74505805969E-08  0.10566000000E+00  0.10566000000E+00 0. -1.
     999900   -1    0    0    0    0 -0.00000000000E+00 -0.00000000000E+00 -0.74505805969E-08  0.93827000000E+00  0.93827000000E+00 0. -1.
     999902    2    1    2    0    0 -0.32328354666E-02 -0.24231824370E-01 -0.73865827701E-02  0.10183919080E+01  0.10180716498E+01 0.  0.
     999903    2    3    3    0    0  0.10826706769E+00 -0.60482316640E-01 -0.34160341979E-01  0.13021221855E+00  0.20209510698E-01 0.  0.
         14    1    1    2    0    0  0.32328354666E-02  0.24231824370E-01  0.73865827701E-02  0.25538091990E-01  0.00000000000E+00 0. -1.
     999901    1    3    3    0    0 -0.11149990316E+00  0.36250492269E-01  0.26773759209E-01  0.88817968946E+00  0.88000000000E+00 0.  1.
        -11    1    4    4    0    0  0.88085080616E-01 -0.56692121981E-01 -0.24854540042E-01  0.10766144808E+00  0.51100000000E-03 0. -1.
         11    1    4    4    0    0  0.20181987073E-01 -0.37901946585E-02 -0.93058019373E-02  0.22550770463E-01  0.51100000000E-03 0.  1.
</event>
<event>
 8    1  0.1093753E+005  0.1043930E+01  0.7957747E-01            NaN
         13   -1    0    0    0    0  0.00000000000E+00  0.00000000000E+00  0.74505805969E-08  0.10566000000E+00  0.10566000000E+00 0.  1.
     999900   -1    0    0    0    0 -0.00000000000E+00 -0.00000000000E+00 -0.74505805969E-08  0.93827000000E+00  0.93827000000E+00 0. -1.
     999902    2    1    2    0    0 -0.41326671556E-02  0.44797483012E-02  0.23245014228E-01  0.10198992329E+01  0.10196160883E+01 0.  0.
     999903    2    3    3    0    0  0.15505498152E-01  0.11716939510E+00  0.54880741924E-01  0.13193221022E+00  0.20618550863E-01 0.  0.
         14    1    1    2    0    0  0.41326671556E-02 -0.44797483012E-02 -0.23245014228E-01  0.24030767135E-01  0.00000000000E+00 0. -1.
     999901    1    3    3    0    0 -0.19638165308E-01 -0.11268964680E+00 -0.31635727696E-01  0.88796702264E+00  0.88000000000E+00 0.  1.
        -11    1    4    4    0    0  0.62304485197E-02  0.40185943707E-01  0.29858203519E-01  0.50452968185E-01  0.51100000000E-03 0. -1.
         11    1    4    4    0    0  0.92750496324E-02  0.76983451391E-01  0.25022538405E-01  0.81479242038E-01  0.51100000000E-03 0.  1.
</event>
<event>
 8    1  0.1093753E+005  0.1043930E+01  0.7957747E-01            NaN
         13   -1    0    0    0    0  0.00000000000E+00  0.00000000000E+00  0.74505805969E-08  0.10566000000E+00  0.10566000000E+00 0. -1.
     999900   -1    0    0    0    0 -0.00000000000E+00 -0.00000000000E+00 -0.74505805969E-08  0.93827000000E+00  0.93827000000E+00 0.  1.
     999902    2    1    2    0    0 -0.12642795038E-01  0.98313256612E-02 -0.17257770513E-01  0.10203858739E+01  0.10201142121E+01 0.  0.
     999903    2    3    3    0    0  0.11876036507E+00  0.31108096659E-01  0.33990453880E-01  0.12890066821E+00  0.19705159733E-01 0.  0.
         14    1    1    2    0    0  0.12642795038E-01 -0.98313256612E-02  0.17257770513E-01  0.23544126098E-01  0.00000000000E+00 0. -1.
     999901    1    3    3    0    0 -0.13140316011E+00 -0.21276770998E-01 -0.51248224393E-01  0.89148520570E+00  0.88000000000E+00 0.  1.
        -11    1    4    4    0    0  0.37011301421E-01  0.25412849526E-02  0.16247674855E-01  0.40503612447E-01  0.51100000000E-03 0.  1.
         11    1    4    4    0    0  0.81749063648E-01  0.28566811707E-01  0.17742779025E-01  0.88397055759E-01  0.51100000000E-03 0. -1.
</event>
<event>
 8    1  0.1093753E+005  0.1043930E+01  0.7957747E-01            NaN
         13   -1    0    0    0    0  0.00000000000E+00  0.00000000000E+00  0.74505805969E-08  0.10566000000E+00  0.10566000000E+00 0. -1.
     999900   -1    0    0    0    0 -0.00000000000E+00 -0.00000000000E+00 -0.74505805969E-08  0.93827000000E+00  0.93827000000E+00 0.  1.
     999902    2    1    2    0    0 -0.15249400363E-01 -0.54424613531E-03 -0.18311657238E-01  0.10200939515E+01  0.10198154307E+01 0.  0.
     999903    2    3    3    0    0 -0.11594224301E+00 -0.76923649885E-02  0.57593233077E-01  0.13107668707E+00  0.19035262098E-01 0.  0.
         14    1    1    2    0    0  0.15249400363E-01  0.54424613531E-03  0.18311657238E-01  0.23836048458E-01  0.00000000000E+00 0. -1.
     999901    1    3    3    0    0  0.10069284264E+00  0.71481188532E-02 -0.75904890316E-01  0.88901726448E+00  0.88000000000E+00 0.  1.
        -11    1    4    4    0    0 -0.48136683069E-01 -0.11523178204E-01  0.29155821031E-01  0.57447775534E-01  0.51100000000E-03 0. -1.
         11    1    4    4    0    0 -0.67805559938E-01  0.38308132157E-02  0.28437412046E-01  0.73628911531E-01  0.51100000000E-03 0.  1.
</event>
<event>
 8    1  0.1093753E+005  0.1043930E+01  0.7957747E-01            NaN
         13   -1    0    0    0    0  0.00000000000E+00  0.00000000000E+00  0.74505805969E-08  0.10566000000E+00  0.10566000000E+00 0.  1.
     999900   -1    0    0    0    0 -0.00000000000E+00 -0.00000000000E+00 -0.74505805969E-08  0.93827000000E+00  0.93827000000E+00 0.  1.
     999902    2    1    2    0    0 -0.42725078120E-02  0.20710678846E-01 -0.10029448696E-01  0.10205253769E+01  0.10202569620E+01 0.  0.
     999903    2    3    3    0    0 -0.11137371209E+00 -0.63156724306E-01  0.32522562150E-02  0.12997452886E+00  0.22134258752E-01 0.  0.
         14    1    1    2    0    0  0.42725078120E-02 -0.20710678846E-01  0.10029448696E-01  0.23404623099E-01  0.00000000000E+00 0.  1.
     999901    1    3    3    0    0  0.10710120428E+00  0.83867403152E-01 -0.13281704911E-01  0.89055084805E+00  0.88000000000E+00 0.  1.
        -11    1    4    4    0    0 -0.54476774429E-01 -0.32918566631E-01 -0.93006365797E-02  0.64328173789E-01  0.51100000000E-03 0. -1.
         11    1    4    4    0    0 -0.56896937663E-01 -0.30238157675E-01  0.12552892795E-01  0.65646355066E-01  0.51100000000E-03 0.  1.
</event>
<event>
 8    1  0.1093753E+005  0.1043930E+01  0.7957747E-01            NaN
         13   -1    0    0    0    0  0.00000000000E+00  0.00000000000E+00  0.74505805969E-08  0.10566000000E+00  0.10566000000E+00 0.  1.
     999900   -1    0    0    0    0 -0.00000000000E+00 -0.00000000000E+00 -0.74505805969E-08  0.93827000000E+00  0.93827000000E+00 0. -1.
     999902    2    1    2    0    0  0.16032991080E-01 -0.91175763941E-02 -0.14596531838E-01  0.10204088235E+01  0.10201376972E+01 0.  0.
     999903    2    3    3    0    0  0.12163123778E+00 -0.43178190306E-01 -0.26712884035E-01  0.13335870027E+00  0.20308880854E-01 0.  0.
         14    1    1    2    0    0 -0.16032991080E-01  0.91175763941E-02  0.14596531838E-01  0.23521176501E-01  0.00000000000E+00 0.  1.
     999901    1    3    3    0    0 -0.10559824670E+00  0.34060613912E-01  0.12116352197E-01  0.88705012323E+00  0.88000000000E+00 0. -1.
        -11    1    4    4    0    0  0.47470250438E-01 -0.21366585332E-01 -0.16219567014E-02  0.52085002735E-01  0.51100000000E-03 0.  1.
         11    1    4    4    0    0  0.74160987347E-01 -0.21811604974E-01 -0.25090927333E-01  0.81273697537E-01  0.51100000000E-03 0. -1.
</event>
<event>
 8    1  0.1093753E+005  0.1043930E+01  0.7957747E-01            NaN
         13   -1    0    0    0    0  0.00000000000E+00  0.00000000000E+00  0.74505805969E-08  0.10566000000E+00  0.10566000000E+00 0. -1.
     999900   -1    0    0    0    0 -0.00000000000E+00 -0.00000000000E+00 -0.74505805969E-08  0.93827000000E+00  0.93827000000E+00 0. -1.
     999902    2    1    2    0    0 -0.11123637773E-02  0.18852954749E-01 -0.15853838311E-01  0.10192720308E+01  0.10189737275E+01 0.  0.
     999903    2    3    3    0    0  0.81208061165E-01 -0.36735249215E-01  0.88892140639E-01  0.12751061602E+00  0.20320354254E-01 0.  0.
         14    1    1    2    0    0  0.11123637773E-02 -0.18852954749E-01  0.15853838311E-01  0.24657969202E-01  0.00000000000E+00 0.  1.
     999901    1    3    3    0    0 -0.82320424943E-01  0.55588203964E-01 -0.10474597895E+00  0.89176141478E+00  0.88000000000E+00 0. -1.
        -11    1    4    4    0    0  0.49778407392E-01 -0.13068319554E-01  0.43057705963E-01  0.67103636133E-01  0.51100000000E-03 0.  1.
         11    1    4    4    0    0  0.31429653773E-01 -0.23666929660E-01  0.45834434676E-01  0.60406979886E-01  0.51100000000E-03 0. -1.
</event>
<event>
 8    1  0.1093753E+005  0.1043930E+01  0.7957747E-01            NaN
         13   -1    0    0    0    0  0.00000000000E+00  0.00000000000E+00  0.74505805969E-08  0.10566000000E+00  0.10566000000E+00 0. -1.
     999900   -1    0    0    0    0 -0.00000000000E+00 -0.00000000000E+00 -0.74505805969E-08  0.93827000000E+00  0.93827000000E+00 0.  1.
     999902    2    1    2    0    0  0.14460979715E-01  0.18407933744E-01 -0.40127818382E-02  0.10201797500E+01  0.10199032542E+01 0.  0.
     999903    2    3    3    0    0 -0.60442070268E-01  0.53056575114E-01 -0.10137951061E+00  0.13097152062E+00  0.20186382056E-01 0.  0.
         14    1    1    2    0    0 -0.14460979715E-01 -0.18407933744E-01  0.40127818382E-02  0.23750250043E-01  0.00000000000E+00 0. -1.
     999901    1    3    3    0    0  0.74903049983E-01 -0.34648641371E-01  0.97366728775E-01  0.88920822934E+00  0.88000000000E+00 0. -1.
        -11    1    4    4    0    0 -0.11117784194E-01  0.20342177279E-01 -0.35565699861E-01  0.42456912623E-01  0.51100000000E-03 0.  1.
         11    1    4    4    0    0 -0.49324286074E-01  0.32714397835E-01 -0.65813810752E-01  0.88514607999E-01  0.51100000000E-03 0. -1.
</event>
<event>
 8    1  0.1093753E+005  0.1043930E+01  0.7957747E-01            NaN
         13   -1    0    0    0    0  0.00000000000E+00  0.00000000000E+00  0.74505805969E-08  0.10566000000E+00  0.10566000000E+00 0. -1.
     999900   -1    0    0    0    0 -0.00000000000E+00 -0.00000000000E+00 -0.74505805969E-08  0.93827000000E+00  0.93827000000E+00 0. -1.
     999902    2    1    2    0    0  0.45530727644E-03  0.17780930398E-01 -0.15225112844E-01  0.10205169085E+01  0.10202482971E+01 0.  0.
     999903    2    3    3    0    0 -0.42887125169E-01 -0.11716502750E+00  0.23118247065E-01  0.12835145794E+00  0.19305290315E-01 0.  0.
         14    1    1    2    0    0 -0.45530727644E-03 -0.17780930398E-01  0.15225112844E-01  0.23413091458E-01  0.00000000000E+00 0. -1.
     999901    1    3    3    0    0  0.43342432445E-01  0.13494595789E+00 -0.38343359909E-01  0.89216545060E+00  0.88000000000E+00 0. -1.
        -11    1    4    4    0    0 -0.89462934312E-02 -0.51420854978E-01  0.75151823799E-02  0.52734045739E-01  0.51100000000E-03 0.  1.
         11    1    4    4    0    0 -0.33940831738E-01 -0.65744172518E-01  0.15603064685E-01  0.75617412199E-01  0.51100000000E-03 0. -1.
</event>
<event>
 8    1  0.1093753E+005  0.1043930E+01  0.7957747E-01            NaN
         13   -1    0    0    0    0  0.00000000000E+00  0.00000000000E+00  0.74505805969E-08  0.10566000000E+00  0.10566000000E+00 0. -1.
     999900   -1    0    0    0    0 -0.00000000000E+00 -0.00000000000E+00 -0.74505805969E-08  0.93827000000E+00  0.93827000000E+00 0. -1.
     999902    2    1    2    0    0 -0.20041385647E-01  0.11228266714E-01 -0.73522341345E-02  0.10198097500E+01  0.10195244675E+01 0.  0.
     999903    2    3    3    0    0  0.12039539514E-01  0.11885665258E+00  0.49454963337E-01  0.13085524450E+00  0.20135720508E-01 0.  0.
         14    1    1    2    0    0  0.20041385647E-01 -0.11228266714E-01  0.73522341345E-02  0.24120249975E-01  0.00000000000E+00 0.  1.
     999901    1    3    3    0    0 -0.32080925161E-01 -0.10762838587E+00 -0.56807197472E-01  0.88895450552E+00  0.88000000000E+00 0. -1.
        -11    1    4    4    0    0 -0.37297729980E-02  0.39210499212E-01  0.22160201429E-01  0.45196350554E-01  0.51100000000E-03 0.  1.
         11    1    4    4    0    0  0.15769312512E-01  0.79646153371E-01  0.27294761908E-01  0.85658893949E-01  0.51100000000E-03 0. -1.
</event>
<event>
 8    1  0.1093753E+005  0.1043930E+01  0.7957747E-01            NaN
         13   -1    0    0    0    0  0.00000000000E+00  0.00000000000E+00  0.74505805969E-08  0.10566000000E+00  0.10566000000E+00 0.  1.
     999900   -1    0    0    0    0 -0.00000000000E+00 -0.00000000000E+00 -0.74505805969E-08  0.93827000000E+00  0.93827000000E+00 0. -1.
     999902    2    1    2    0    0  0.40729083407E-02  0.17253495470E-01  0.15037190323E-01  0.10206837362E+01  0.10204189828E+01 0.  0.
     999903    2    3    3    0    0  0.22519969393E-01  0.12184800964E+00 -0.42208509949E-01  0.13245100956E+00  0.20189728721E-01 0.  0.
         14    1    1    2    0    0 -0.40729083407E-02 -0.17253495470E-01 -0.15037190323E-01  0.23246263810E-01  0.00000000000E+00 0. -1.
     999901    1    3    3    0    0 -0.18447061053E-01 -0.10459451417E+00  0.57245700272E-01  0.88823272663E+00  0.88000000000E+00 0. -1.
        -11    1    4    4    0    0  0.71954294406E-02  0.49293441956E-01 -0.27307152136E-01  0.56811612400E-01  0.51100000000E-03 0. -1.
         11    1    4    4    0    0  0.15324539953E-01  0.72554567688E-01 -0.14901357813E-01  0.75639397160E-01  0.51100000000E-03 0.  1.
</event>
<event>
 8    1  0.1093753E+005  0.1043930E+01  0.7957747E-01            NaN
         13   -1    0    0    0    0  0.00000000000E+00  0.00000000000E+00  0.74505805969E-08  0.10566000000E+00  0.10566000000E+00 0. -1.
     999900   -1    0    0    0    0 -0.00000000000E+00 -0.00000000000E+00 -0.74505805969E-08  0.93827000000E+00  0.93827000000E+00 0.  1.
     999902    2    1    2    0    0 -0.32315561635E-03  0.80616918912E-02  0.22447718435E-01  0.10200763762E+01  0.10197974396E+01 0.  0.
     999903    2    3    3    0    0 -0.49815733575E-01  0.24196243600E-01  0.11950264896E+00  0.13321139291E+00  0.19933052411E-01 0.  0.
         14    1    1    2    0    0  0.32315561635E-03 -0.80616918912E-02 -0.22447718435E-01  0.23853623805E-01  0.00000000000E+00 0.  1.
     999901    1    3    3    0    0  0.49492577959E-01 -0.16134551709E-01 -0.97054930522E-01  0.88686498328E+00  0.88000000000E+00 0.  1.
        -11    1    4    4    0    0 -0.50491804510E-02  0.10361836987E-01  0.30846857832E-01  0.32934049980E-01  0.51100000000E-03 0. -1.
         11    1    4    4    0    0 -0.44766553124E-01  0.13834406613E-01  0.88655791124E-01  0.10027734293E+00  0.51100000000E-03 0.  1.
</event>
<event>
 8    1  0.1093753E+005  0.1043930E+01  0.7957747E-01            NaN
         13   -1    0    0    0    0  0.00000000000E+00  0.00000000000E+00  0.74505805969E-08  0.10566000000E+00  0.10566000000E+00 0.  1.
     999900   -1    0    0    0    0 -0.00000000000E+00 -0.00000000000E+00 -0.74505805969E-08  0.93827000000E+00  0.93827000000E+00 0. -1.
     999902    2    1    2    0    0 -0.19709665585E-01  0.65299818618E-02 -0.10917389047E-01  0.10204715055E+01  0.10202018391E+01 0.  0.
     999903    2    3    3    0    0  0.11712678459E+00  0.40961225204E-01  0.26492955918E-01  0.12844613673E+00  0.20000692213E-01 0.  0.
         14    1    1    2    0    0  0.19709665585E-01 -0.65299818618E-02  0.10917389047E-01  0.23458494500E-01  0.00000000000E+00 0.  1.
     999901    1    3    3    0    0 -0.13683645018E+00 -0.34431243342E-01 -0.37410344965E-01  0.89202536877E+00  0.88000000000E+00 0.  1.
        -11    1    4    4    0    0  0.25025372735E-01  0.17750073638E-01  0.73584172028E-02  0.31555377029E-01  0.51100000000E-03 0.  1.
         11    1    4    4    0    0  0.92101411857E-01  0.23211151566E-01  0.19134538715E-01  0.96890759704E-01  0.51100000000E-03 0. -1.
</event>
<event>
 8    1  0.1093753E+005  0.1043930E+01  0.7957747E-01            NaN
         13   -1    0    0    0    0  0.00000000000E+00  0.00000000000E+00  0.74505805969E-08  0.10566000000E+00  0.10566000000E+00 0.  1.
     999900   -1    0    0    0    0 -0.00000000000E+00 -0.00000000000E+00 -0.74505805969E-08  0.93827000000E+00  0.93827000000E+00 0.  1.
     999902    2    1    2    0    0  0.19528614229E-01  0.29055406856E-02  0.13301924042E-01  0.10201234857E+01  0.10198456628E+01 0.  0.
     999903    2    3    3    0    0 -0.56945390997E-01 -0.10422426200E+00  0.48040485466E-01  0.12965628486E+00  0.19934633587E-01 0.  0.
         14    1    1    2    0    0 -0.19528614229E-01 -0.29055406856E-02 -0.13301924042E-01  0.23806514311E-01  0.00000000000E+00 0. -1.
     999901    1    3    3    0    0  0.76474005227E-01  0.10712980268E+00 -0.34738561424E-01  0.89046720083E+00  0.88000000000E+00 0. -1.
        -11    1    4    4    0    0 -0.27536831959E-01 -0.47449432619E-01  0.32811319887E-01  0.63926282576E-01  0.51100000000E-03 0. -1.
         11    1    4    4    0    0 -0.29408559038E-01 -0.56774829376E-01  0.15229165579E-01  0.65730002287E-01  0.51100000000E-03 0.  1.
</event>
<event>
 8    1  0.1093753E+005  0.1043930E+01  0.7957747E-01            NaN
         13   -1    0    0    0    0  0.00000000000E+00  0.00000000000E+00  0.74505805969E-08  0.10566000000E+00  0.10566000000E+00 0. -1.
     999900   -1    0    0    0    0 -0.00000000000E+00 -0.00000000000E+00 -0.74505805969E-08  0.93827000000E+00  0.93827000000E+00 0.  1.
     999902    2    1    2    0    0  0.14659559614E-01  0.12790049554E-02  0.19877299145E-01  0.10191985309E+01  0.10188984247E+01 0.  0.
     999903    2    3    3    0    0 -0.80233715691E-01  0.75994882746E-01 -0.59879533085E-01  0.12737548323E+00  0.20646644010E-01 0.  0.
         14    1    1    2    0    0 -0.14659559614E-01 -0.12790049554E-02 -0.19877299145E-01  0.24731469084E-01  0.00000000000E+00 0.  1.
     999901    1    3    3    0    0  0.94893275306E-01 -0.74715877791E-01  0.79756832230E-01  0.89182304768E+00  0.88000000000E+00 0. -1.
        -11    1    4    4    0    0 -0.59265502067E-01  0.53613983304E-01 -0.32551339653E-01  0.86294320643E-01  0.51100000000E-03 0.  1.
         11    1    4    4    0    0 -0.20968213625E-01  0.22380899442E-01 -0.27328193432E-01  0.41081162589E-01  0.51100000000E-03 0. -1.
</event>
<event>
 8    1  0.1093753E+005  0.1043930E+01  0.7957747E-01            NaN
         13   -1    0    0    0    0  0.00000000000E+00  0.00000000000E+00  0.74505805969E-08  0.10566000000E+00  0.10566000000E+00 0. -1.
     999900   -1    0    0    0    0 -0.00000000000E+00 -0.00000000000E+00 -0.74505805969E-08  0.93827000000E+00  0.93827000000E+00 0. -1.
     999902    2    1    2    0    0  0.18037381068E-01  0.60601310520E-02  0.13563579886E-01  0.10205624369E+01  0.10202948812E+01 0.  0.
     999903    2    3    3    0    0 -0.44202783869E-01  0.72437324336E-01  0.98742117285E-01  0.13177947516E+00  0.20365959041E-01 0.  0.
         14    1    1    2    0    0 -0.18037381068E-01 -0.60601310520E-02 -0.13563579886E-01  0.23367563063E-01  0.00000000000E+00 0.  1.
     999901    1    3    3    0    0  0.62240164936E-01 -0.66377193284E-01 -0.85178537399E-01  0.88878296178E+00  0.88000000000E+00 0. -1.
        -11    1    4    4    0    0 -0.24423298738E-01  0.56141960558E-01  0.75235745897E-01  0.97000494010E-01  0.51100000000E-03 0.  1.
         11    1    4    4    0    0 -0.19779485131E-01  0.16295363779E-01  0.23506371388E-01  0.34778981146E-01  0.51100000000E-03 0. -1.
</event>
<event>
 8    1  0.1093753E+005  0.1043930E+01  0.7957747E-01            NaN
         13   -1    0    0    0    0  0.00000000000E+00  0.00000000000E+00  0.74505805969E-08  0.10566000000E+00  0.10566000000E+00 0. -1.
     999900   -1    0    0    0    0 -0.00000000000E+00 -0.00000000000E+00 -0.74505805969E-08  0.93827000000E+00  0.93827000000E+00 0. -1.
     999902    2    1    2    0    0  0.10349052360E-01 -0.16470405739E-01  0.29280155543E-01  0.10087774089E+01  0.10081647465E+01 0.  0.
     999903    2    3    3    0    0 -0.52208700769E-01  0.57685479430E-01  0.91170855425E-01  0.12128485882E+00  0.18561495804E-01 0.  0.
         14    1    1    2    0    0 -0.10349052360E-01  0.16470405739E-01 -0.29280155543E-01  0.35152591065E-01  0.00000000000E+00 0.  1.
     999901    1    3    3    0    0  0.62557753129E-01 -0.74155885169E-01 -0.61890699881E-01  0.88749255012E+00  0.88000000000E+00 0. -1.
        -11    1    4    4    0    0 -0.24529379163E-01  0.22263957070E-01  0.26012063305E-01  0.42121998824E-01  0.51100000000E-03 0. -1.
         11    1    4    4    0    0 -0.27679321606E-01  0.35421522360E-01  0.65158792120E-01  0.79162859994E-01  0.51100000000E-03 0.  1.
</event>
<event>
 8    1  0.1093753E+005  0.1043930E+01  0.7957747E-01            NaN
         13   -1    0    0    0    0  0.00000000000E+00  0.00000000000E+00  0.74505805969E-08  0.10566000000E+00  0.10566000000E+00 0.  1.
     999900   -1    0    0    0    0 -0.00000000000E+00 -0.00000000000E+00 -0.74505805969E-08  0.93827000000E+00  0.93827000000E+00 0.  1.
     999902    2    1    2    0    0 -0.13426739338E-01  0.18354793139E-01 -0.32773874689E-02  0.10209535549E+01  0.10206949810E+01 0.  0.
     999903    2    3    3    0    0  0.22073916035E-01  0.12710024962E+00 -0.25877055315E-01  0.13326182023E+00  0.21150875077E-01 0.  0.
         14    1    1    2    0    0  0.13426739338E-01 -0.18354793139E-01  0.32773874689E-02  0.22976445091E-01  0.00000000000E+00 0. -1.
     999901    1    3    3    0    0 -0.35500655373E-01 -0.10874545648E+00  0.22599667846E-01  0.88769173468E+00  0.88000000000E+00 0. -1.
        -11    1    4    4    0    0  0.19278380803E-01  0.93735380955E-01 -0.27994589623E-01  0.99709256232E-01  0.51100000000E-03 0.  1.
         11    1    4    4    0    0  0.27955352318E-02  0.33364868662E-01  0.21175343082E-02  0.33552563995E-01  0.51100000000E-03 0. -1.
</event>
<event>
 8    1  0.1093753E+005  0.1043930E+01  0.7957747E-01            NaN
         13   -1    0    0    0    0  0.00000000000E+00  0.00000000000E+00  0.74505805969E-08  0.10566000000E+00  0.10566000000E+00 0. -1.
     999900   -1    0    0    0    0 -0.00000000000E+00 -0.00000000000E+00 -0.74505805969E-08  0.93827000000E+00  0.93827000000E+00 0. -1.
     999902    2    1    2    0    0  0.80195414566E-02 -0.19205854568E-01 -0.12507197303E-01  0.10196481574E+01  0.10193589932E+01 0.  0.
     999903    2    3    3    0    0 -0.25610787645E-01 -0.11289490475E+00 -0.61805518313E-01  0.13266509015E+00  0.19466178079E-01 0.  0.
         14    1    1    2    0    0 -0.80195414566E-02  0.19205854568E-01  0.12507197303E-01  0.24281842583E-01  0.00000000000E+00 0. -1.
     999901    1    3    3    0    0  0.33630329101E-01  0.93689050182E-01  0.49298321009E-01  0.88698306726E+00  0.88000000000E+00 0.  1.
        -11    1    4    4    0    0 -0.17482586936E-01 -0.58405382034E-01 -0.42360665909E-01  0.74239589397E-01  0.51100000000E-03 0. -1.
         11    1    4    4    0    0 -0.81282007084E-02 -0.54489522716E-01 -0.19444852403E-01  0.58425500756E-01  0.51100000000E-03 0.  1.
</event>
<event>
 8    1  0.1093753E+005  0.1043930E+01  0.7957747E-01            NaN
         13   -1    0    0    0    0  0.00000000000E+00  0.00000000000E+00  0.74505805969E-08  0.10566000000E+00  0.10566000000E+00 0. -1.
     999900   -1    0    0    0    0 -0.00000000000E+00 -0.00000000000E+00 -0.74505805969E-08  0.93827000000E+00  0.93827000000E+00 0.  1.
     999902    2    1    2    0    0  0.11613174865E-01 -0.16764202848E-01 -0.12034186747E-01  0.10202503467E+01  0.10199755115E+01 0.  0.
     999903    2    3    3    0    0  0.70428424238E-03 -0.96039783946E-01  0.87150376130E-01  0.13107027546E+00  0.18976114819E-01 0.  0.
         14    1    1    2    0    0 -0.11613174865E-01  0.16764202848E-01  0.12034186747E-01  0.23679653254E-01  0.00000000000E+00 0. -1.
     999901    1    3    3    0    0  0.10908890622E-01  0.79275581098E-01 -0.99184562878E-01  0.88918007128E+00  0.88000000000E+00 0.  1.
        -11    1    4    4    0    0  0.23323148152E-02 -0.26333539166E-01  0.35652143311E-01  0.44387288959E-01  0.51100000000E-03 0. -1.
         11    1    4    4    0    0 -0.16280305729E-02 -0.69706244780E-01  0.51498232819E-01  0.86682986504E-01  0.51100000000E-03 0.  1.
</event>
<event>
 8    1  0.1093753E+005  0.1043930E+01  0.7957747E-01            NaN
         13   -1    0    0    0    0  0.00000000000E+00  0.00000000000E+00  0.74505805969E-08  0.10566000000E+00  0.10566000000E+00 0. -1.
     999900   -1    0    0    0    0 -0.00000000000E+00 -0.00000000000E+00 -0.74505805969E-08  0.93827000000E+00  0.93827000000E+00 0.  1.
     999902    2    1    2    0    0  0.23088241946E-01 -0.31296195970E-02  0.70490545955E-02  0.10195876376E+01  0.10192970128E+01 0.  0.
     999903    2    3    3    0    0  0.11778595988E+00 -0.56856911061E-01  0.11558772647E-01  0.13286636396E+00  0.20337766993E-01 0.  0.
         14    1    1    2    0    0 -0.23088241946E-01  0.31296195970E-02 -0.70490545955E-02  0.24342362368E-01  0.00000000000E+00 0.  1.
     999901    1    3    3    0    0 -0.94697717933E-01  0.53727291464E-01 -0.45097180511E-02  0.88672127367E+00  0.88000000000E+00 0. -1.
        -11    1    4    4    0    0  0.16446362997E-01 -0.15149835417E-01 -0.19397892166E-02  0.22450484899E-01  0.51100000000E-03 0.  1.
         11    1    4    4    0    0  0.10133959688E+00 -0.41707075644E-01  0.13498561863E-01  0.11041587906E+00  0.51100000000E-03 0. -1.
</event>
<event>
 8    1  0.1093753E+005  0.1043930E+01  0.7957747E-01            NaN
         13   -1    0    0    0    0  0.00000000000E+00  0.00000000000E+00  0.74505805969E-08  0.10566000000E+00  0.10566000000E+00 0.  1.
     999900   -1    0    0    0    0 -0.00000000000E+00 -0.00000000000E+00 -0.74505805969E-08  0.93827000000E+00  0.93827000000E+00 0.  1.
     999902    2    1    2    0    0  0.25216186355E-02 -0.76310436709E-02 -0.22535083446E-01  0.10200046709E+01  0.10197240348E+01 0.  0.
     999903    2    3    3    0    0  0.90075367847E-01 -0.40944200072E-01  0.79966484489E-01  0.12911635193E+00  0.22054348383E-01 0.  0.
         14    1    1    2    0    0 -0.25216186355E-02  0.76310436709E-02  0.22535083446E-01  0.23925329130E-01  0.00000000000E+00 0.  1.
     999901    1    3    3    0    0 -0.87553749211E-01  0.33313156401E-01 -0.10250156793E+00  0.89088831894E+00  0.88000000000E+00 0.  1.
        -11    1    4    4    0    0  0.40354684046E-01 -0.64957860790E-02  0.32858246967E-01  0.52446365708E-01  0.51100000000E-03 0. -1.
         11    1    4    4    0    0  0.49720683801E-01 -0.34448413993E-01  0.47108237521E-01  0.76669986224E-01  0.51100000000E-03 0.  1.
</event>
<event>
 8    1  0.1093753E+005  0.1043930E+01  0.7957747E-01            NaN
         13   -1    0    0    0    0  0.00000000000E+00  0.00000000000E+00  0.74505805969E-08  0.10566000000E+00  0.10566000000E+00 0.  1.
     999900   -1    0    0    0    0 -0.00000000000E+00 -0.00000000000E+00 -0.74505805969E-08  0.93827000000E+00  0.93827000000E+00 0.  1.
     999902    2    1    2    0    0  0.22137783718E-01 -0.54887230967E-02  0.22385367887E-02  0.10210123519E+01  0.10207551146E+01 0.  0.
     999903    2    3    3    0    0  0.13147804419E+00  0.51519985383E-02  0.17975796544E-01  0.13404212753E+00  0.18197348604E-01 0.  0.
         14    1    1    2    0    0 -0.22137783718E-01  0.54887230967E-02 -0.22385367887E-02  0.22917648137E-01  0.00000000000E+00 0.  1.
     999901    1    3    3    0    0 -0.10934026048E+00 -0.10640721635E-01 -0.15737259755E-01  0.88697022434E+00  0.88000000000E+00 0.  1.
        -11    1    4    4    0    0  0.32721718844E-01  0.54267356778E-02 -0.21954247275E-02  0.33245170401E-01  0.51100000000E-03 0.  1.
         11    1    4    4    0    0  0.98756325349E-01 -0.27473713957E-03  0.20171221271E-01  0.10079695712E+00  0.51100000000E-03 0. -1.
</event>
<event>
 8    1  0.1093753E+005  0.1043930E+01  0.7957747E-01            NaN
         13   -1    0    0    0    0  0.00000000000E+00  0.00000000000E+00  0.74505805969E-08  0.10566000000E+00  0.10566000000E+00 0. -1.
     999900   -1    0    0    0    0 -0.00000000000E+00 -0.00000000000E+00 -0.74505805969E-08  0.93827000000E+00  0.93827000000E+00 0.  1.
     999902    2    1    2    0    0 -0.21140894539E-01  0.89700172732E-02  0.69618926473E-02  0.10199327797E+01  0.10196504345E+01 0.  0.
     999903    2    3    3    0    0  0.96041332328E-01  0.61732735977E-01 -0.55419365259E-01  0.12841329025E+00  0.19590785072E-01 0.  0.
         14    1    1    2    0    0  0.21140894539E-01 -0.89700172732E-02 -0.69618926473E-02  0.23997220277E-01  0.00000000000E+00 0. -1.
     999901    1    3    3    0    0 -0.11718222687E+00 -0.52762718704E-01  0.62381257907E-01  0.89151948948E+00  0.88000000000E+00 0. -1.
        -11    1    4    4    0    0  0.99552450725E-02  0.12633146897E-01 -0.12668128386E-01  0.20480378482E-01  0.51100000000E-03 0.  1.
         11    1    4    4    0    0  0.86086087255E-01  0.49099589080E-01 -0.42751236874E-01  0.10793291176E+00  0.51100000000E-03 0. -1.
</event>
<event>
 8    1  0.1093753E+005  0.1043930E+01  0.7957747E-01            NaN
         13   -1    0    0    0    0  0.00000000000E+00  0.00000000000E+00  0.74505805969E-08  0.10566000000E+00  0.10566000000E+00 0. -1.
     999900   -1    0    0    0    0 -0.00000000000E+00 -0.00000000000E+00 -0.74505805969E-08  0.93827000000E+00  0.93827000000E+00 0.  1.
     999902    2    1    2    0    0  0.94490562613E-02  0.52550481773E-02 -0.20261549127E-01  0.10209641434E+01  0.10207058105E+01 0.  0.
     999903    2    3    3    0    0  0.11681132714E+00  0.36437462465E-01  0.44200632590E-01  0.13155176828E+00  0.19483249152E-01 0.  0.
         14    1    1    2    0    0 -0.94490562613E-02 -0.52550481773E-02  0.20261549127E-01  0.22965856583E-01  0.00000000000E+00 0. -1.
     999901    1    3    3    0    0 -0.10736227088E+00 -0.31182414288E-01 -0.64462181717E-01  0.88941237513E+00  0.88000000000E+00 0. -1.
        -11    1    4    4    0    0  0.78315439975E-01  0.14939572606E-01  0.26192157628E-01  0.83921327506E-01  0.51100000000E-03 0.  1.
         11    1    4    4    0    0  0.38495887167E-01  0.21497889860E-01  0.18008474962E-01  0.47630440777E-01  0.51100000000E-03 0. -1.
</event>
<event>
 8    1  0.1093753E+005  0.1043930E+01  0.7957747E-01            NaN
         13   -1    0    0    0    0  0.00000000000E+00  0.00000000000E+00  0.74505805969E-08  0.10566000000E+00  0.10566000000E+00 0.  1.
     999900   -1    0    0    0    0 -0.00000000000E+00 -0.00000000000E+00 -0.74505805969E-08  0.93827000000E+00  0.93827000000E+00 0. -1.
     999902    2    1    2    0    0 -0.23213523591E-01  0.13152364262E-02 -0.44037249980E-02  0.10202658854E+01  0.10199914150E+01 0.  0.
     999903    2    3    3    0    0  0.10862284749E+00  0.62612714496E-01  0.16928192539E-01  0.12808134159E+00  0.19974767792E-01 0.  0.
         14    1    1    2    0    0  0.23213523591E-01 -0.13152364262E-02  0.44037249980E-02  0.23664114567E-01  0.00000000000E+00 0. -1.
     999901    1    3    3    0    0 -0.13183637108E+00 -0.61297478070E-01 -0.21331917537E-01  0.89218454384E+00  0.88000000000E+00 0.  1.
        -11    1    4    4    0    0  0.22202877329E-01  0.45349116123E-02  0.52045819338E-03  0.22673005596E-01  0.51100000000E-03 0. -1.
         11    1    4    4    0    0  0.86419970162E-01  0.58077802884E-01  0.16407734346E-01  0.10540833600E+00  0.51100000000E-03 0.  1.
</event>
<event>
 8    1  0.1093753E+005  0.1043930E+01  0.7957747E-01            NaN
         13   -1    0    0    0    0  0.00000000000E+00  0.00000000000E+00  0.74505805969E-08  0.10566000000E+00  0.10566000000E+00 0.  1.
     999900   -1    0    0    0    0 -0.00000000000E+00 -0.00000000000E+00 -0.74505805969E-08  0.93827000000E+00  0.93827000000E+00 0.  1.
     999902    2    1    2    0    0  0.10551164449E-01  0.14075490043E-01  0.16036803432E-01  0.10201261021E+01  0.10198483410E+01 0.  0.
     999903    2    3    3    0    0  0.10895663486E+00  0.66850190671E-01  0.30646407585E-01  0.13294954347E+00  0.19896797197E-01 0.  0.
         14    1    1    2    0    0 -0.10551164449E-01 -0.14075490043E-01 -0.16036803432E-01  0.23803897906E-01  0.00000000000E+00 0. -1.
     999901    1    3    3    0    0 -0.98405470412E-01 -0.52774700628E-01 -0.14609604153E-01  0.88717655862E+00  0.88000000000E+00 0.  1.
        -11    1    4    4    0    0  0.65092277626E-01  0.51098987508E-01  0.20153410058E-01  0.85173541602E-01  0.51100000000E-03 0. -1.
         11    1    4    4    0    0  0.43864357235E-01  0.15751203162E-01  0.10492997527E-01  0.47776001871E-01  0.51100000000E-03 0.  1.
</event>
<event>
 8    1  0.1093753E+005  0.1043930E+01  0.7957747E-01            NaN
         13   -1    0    0    0    0  0.00000000000E+00  0.00000000000E+00  0.74505805969E-08  0.10566000000E+00  0.10566000000E+00 0. -1.
     999900   -1    0    0    0    0 -0.00000000000E+00 -0.00000000000E+00 -0.74505805969E-08  0.93827000000E+00  0.93827000000E+00 0.  1.
     999902    2    1    2    0    0 -0.19072217469E-01  0.81582619389E-02  0.11819134377E-01  0.10200553554E+01  0.10197759212E+01 0.  0.
     999903    2    3    3    0    0 -0.69875154197E-01  0.57485786432E-01  0.94987782531E-01  0.13330219523E+00  0.23656787744E-01 0.  0.
         14    1    1    2    0    0  0.19072217469E-01 -0.81582619389E-02 -0.11819134377E-01  0.23874644594E-01  0.00000000000E+00 0. -1.
     999901    1    3    3    0    0  0.50802936729E-01 -0.49327524493E-01 -0.83168648153E-01  0.88675316018E+00  0.88000000000E+00 0.  1.
        -11    1    4    4    0    0 -0.49266319291E-01  0.25719772994E-01  0.59135544905E-01  0.81153870712E-01  0.51100000000E-03 0.  1.
         11    1    4    4    0    0 -0.20608834907E-01  0.31766013438E-01  0.35852237626E-01  0.52148324515E-01  0.51100000000E-03 0. -1.
</event>
<event>
 8    1  0.1093753E+005  0.1043930E+01  0.7957747E-01            NaN
         13   -1    0    0    0    0  0.00000000000E+00  0.00000000000E+00  0.74505805969E-08  0.10566000000E+00  0.10566000000E+00 0. -1.
     999900   -1    0    0    0    0 -0.00000000000E+00 -0.00000000000E+00 -0.74505805969E-08  0.93827000000E+00  0.93827000000E+00 0.  1.
     999902    2    1    2    0    0 -0.18229006133E-01  0.13641913989E-01  0.81613160357E-02  0.10197431118E+01  0.10194562318E+01 0.  0.
     999903    2    3    3    0    0  0.30837455905E-01 -0.75250068780E-01  0.98536645566E-01  0.12930670054E+00  0.19930648409E-01 0.  0.
         14    1    1    2    0    0  0.18229006133E-01 -0.13641913989E-01 -0.81613160357E-02  0.24186888211E-01  0.00000000000E+00 0.  1.
     999901    1    3    3    0    0 -0.49066462038E-01  0.88891982769E-01 -0.90375329530E-01  0.89043641125E+00  0.88000000000E+00 0.  1.
        -11    1    4    4    0    0  0.12850583245E-01 -0.50957657146E-01  0.52926864292E-01  0.74587763046E-01  0.51100000000E-03 0.  1.
         11    1    4    4    0    0  0.17986872660E-01 -0.24292411635E-01  0.45609781274E-01  0.54718937489E-01  0.51100000000E-03 0. -1.
</event>
<event>
 8    1  0.1093753E+005  0.1043930E+01  0.7957747E-01            NaN
         13   -1    0    0    0    0  0.00000000000E+00  0.00000000000E+00  0.74505805969E-08  0.10566000000E+00  0.10566000000E+00 0.  1.
     999900   -1    0    0    0    0 -0.00000000000E+00 -0.00000000000E+00 -0.74505805969E-08  0.93827000000E+00  0.93827000000E+00 0. -1.
     999902    2    1    2    0    0  0.20205881442E-01  0.25934797106E-02 -0.12099095131E-01  0.10202362902E+01  0.10199611247E+01 0.  0.
     999903    2    3    3    0    0 -0.33244898705E-01 -0.12079275328E+00  0.24035360317E-01  0.12928912718E+00  0.21020640487E-01 0.  0.
         14    1    1    2    0    0 -0.20205881442E-01 -0.25934797106E-02  0.12099095131E-01  0.23693709816E-01  0.00000000000E+00 0.  1.
     999901    1    3    3    0    0  0.53450780147E-01  0.12338623299E+00 -0.36134455448E-01  0.89094716300E+00  0.88000000000E+00 0. -1.
        -11    1    4    4    0    0 -0.13600449390E-01 -0.53792549680E-01  0.21229697523E-01  0.59410199483E-01  0.51100000000E-03 0.  1.
         11    1    4    4    0    0 -0.19644449316E-01 -0.67000203602E-01  0.28056627938E-02  0.69878927699E-01  0.51100000000E-03 0. -1.
</event>
<event>
 8    1  0.1093753E+005  0.1043930E+01  0.7957747E-01            NaN
         13   -1    0    0    0    0  0.00000000000E+00  0.00000000000E+00  0.74505805969E-08  0.10566000000E+00  0.10566000000E+00 0.  1.
     999900   -1    0    0    0    0 -0.00000000000E+00 -0.00000000000E+00 -0.74505805969E-08  0.93827000000E+00  0.93827000000E+00 0. -1.
     999902    2    1    2    0    0 -0.11141681603E-01  0.20561809390E-01 -0.33198253088E-02  0.10203091128E+01  0.10200356559E+01 0.  0.
     999903    2    3    3    0    0  0.50544674828E-01 -0.54554111897E-01  0.10296447348E+00  0.12860066243E+00  0.20137832559E-01 0.  0.
         14    1    1    2    0    0  0.11141681603E-01 -0.20561809390E-01  0.33198253088E-02  0.23620887248E-01  0.00000000000E+00 0. -1.
     999901    1    3    3    0    0 -0.61686356431E-01  0.75115921286E-01 -0.10628429879E+00  0.89170845032E+00  0.88000000000E+00 0. -1.
        -11    1    4    4    0    0  0.95444440687E-02 -0.13082383697E-02  0.10067771441E-01  0.13943781517E-01  0.51100000000E-03 0. -1.
         11    1    4    4    0    0  0.41000230759E-01 -0.53245873527E-01  0.92896702042E-01  0.11465688092E+00  0.51100000000E-03 0.  1.
</event>
<event>
 8    1  0.1093753E+005  0.1043930E+01  0.7957747E-01            NaN
         13   -1    0    0    0    0  0.00000000000E+00  0.00000000000E+00  0.74505805969E-08  0.10566000000E+00  0.10566000000E+00 0.  1.
     999900   -1    0    0    0    0 -0.00000000000E+00 -0.00000000000E+00 -0.74505805969E-08  0.93827000000E+00  0.93827000000E+00 0.  1.
     999902    2    1    2    0    0  0.12516906188E-01 -0.66307798718E-02 -0.20240364168E-01  0.10192254959E+01  0.10189260517E+01 0.  0.
     999903    2    3    3    0    0  0.11497921602E+00 -0.51566172581E-01  0.30552426995E-01  0.13068870875E+00  0.16333937907E-01 0.  0.
         14    1    1    2    0    0 -0.12516906188E-01  0.66307798718E-02  0.20240364168E-01  0.24704504121E-01  0.00000000000E+00 0.  1.
     999901    1    3    3    0    0 -0.10246230983E+00  0.44935392709E-01 -0.50792791162E-01  0.88853678713E+00  0.88000000000E+00 0.  1.
        -11    1    4    4    0    0  0.46250314326E-01 -0.12167598932E-01  0.12573003944E-01  0.49451830990E-01  0.51100000000E-03 0. -1.
         11    1    4    4    0    0  0.68728901693E-01 -0.39398573648E-01  0.17979423051E-01  0.81236877757E-01  0.51100000000E-03 0.  1.
</event>
<event>
 8    1  0.1093753E+005  0.1043930E+01  0.7957747E-01            NaN
         13   -1    0    0    0    0  0.00000000000E+00  0.00000000000E+00  0.74505805969E-08  0.10566000000E+00  0.10566000000E+00 0.  1.
     999900   -1    0    0    0    0 -0.00000000000E+00 -0.00000000000E+00 -0.74505805969E-08  0.93827000000E+00  0.93827000000E+00 0. -1.
     999902    2    1    2    0    0  0.19056218830E-01 -0.10865163883E-01  0.49986420901E-02  0.10214316071E+01  0.10211837984E+01 0.  0.
     999903    2    3    3    0    0  0.12486716195E-01 -0.36871234312E-01  0.12551155921E+00  0.13281310778E+00  0.19255235683E-01 0.  0.
         14    1    1    2    0    0 -0.19056218830E-01  0.10865163883E-01 -0.49986420901E-02  0.22498392943E-01  0.00000000000E+00 0. -1.
     999901    1    3    3    0    0  0.65695026346E-02  0.26006070429E-01 -0.12051291712E+00  0.88861849928E+00  0.88000000000E+00 0. -1.
        -11    1    4    4    0    0  0.15860565218E-01 -0.17798743211E-01  0.75658013764E-01  0.79326848902E-01  0.51100000000E-03 0.  1.
         11    1    4    4    0    0 -0.33738490232E-02 -0.19072491101E-01  0.49853545448E-01  0.53486258878E-01  0.51100000000E-03 0. -1.
</event>
<event>
 8    1  0.1093753E+005  0.1043930E+01  0.7957747E-01            NaN
         13   -1    0    0    0    0  0.00000000000E+00  0.00000000000E+00  0.74505805969E-08  0.10566000000E+00  0.10566000000E+00 0.  1.
     999900   -1    0    0    0    0 -0.00000000000E+00 -0.00000000000E+00 -0.74505805969E-08  0.93827000000E+00  0.93827000000E+00 0.  1.
     999902    2    1    2    0    0  0.16993974386E-01  0.17611922659E-01 -0.10423544787E-02  0.10194338475E+01  0.10191394938E+01 0.  0.
     999903    2    3    3    0    0 -0.70895342386E-01 -0.39848613784E-01  0.96547970092E-01  0.12783409608E+00  0.20149044639E-01 0.  0.
         14    1    1    2    0    0 -0.16993974386E-01 -0.17611922659E-01  0.10423544787E-02  0.24496152515E-01  0.00000000000E+00 0.  1.
     999901    1    3    3    0    0  0.87889316772E-01  0.57460536443E-01 -0.97590324570E-01  0.89159975140E+00  0.88000000000E+00 0. -1.
        -11    1    4    4    0    0 -0.17389031563E-01 -0.40652051269E-02  0.32152065047E-01  0.36782070622E-01  0.51100000000E-03 0.  1.
         11    1    4    4    0    0 -0.53506310823E-01 -0.35783408657E-01  0.64395905044E-01  0.91052025461E-01  0.51100000000E-03 0. -1.
</event>
<event>
 8    1  0.1093753E+005  0.1043930E+01  0.7957747E-01            NaN
         13   -1    0    0    0    0  0.00000000000E+00  0.00000000000E+00  0.74505805969E-08  0.10566000000E+00  0.10566000000E+00 0.  1.
     999900   -1    0    0    0    0 -0.00000000000E+00 -0.00000000000E+00 -0.74505805969E-08  0.93827000000E+00  0.93827000000E+00 0.  1.
     999902    2    1    2    0    0  0.79216775890E-02 -0.12394194928E-01  0.17860516145E-01  0.10207919992E+01  0.10205297343E+01 0.  0.
     999903    2    3    3    0    0 -0.86889716330E-01 -0.82591324221E-01  0.52279418414E-01  0.13225303089E+00  0.19661560223E-01 0.  0.
         14    1    1    2    0    0 -0.79216775890E-02  0.12394194928E-01 -0.17860516145E-01  0.23138000793E-01  0.00000000000E+00 0. -1.
     999901    1    3    3    0    0  0.94811393919E-01  0.70197129293E-01 -0.34418902270E-01  0.88853896831E+00  0.88000000000E+00 0.  1.
        -11    1    4    4    0    0 -0.13855523030E-01 -0.24455953637E-01  0.11095483271E-01  0.30223170859E-01  0.51100000000E-03 0. -1.
         11    1    4    4    0    0 -0.73034193300E-01 -0.58135370584E-01  0.41183935143E-01  0.10202986004E+00  0.51100000000E-03 0.  1.
</event>
<event>
 8    1  0.1093753E+005  0.1043930E+01  0.7957747E-01            NaN
         13   -1    0    0    0    0  0.00000000000E+00  0.00000000000E+00  0.74505805969E-08  0.10566000000E+00  0.10566000000E+00 0.  1.
     999900   -1    0    0    0    0 -0.00000000000E+00 -0.00000000000E+00 -0.74505805969E-08  0.93827000000E+00  0.93827000000E+00 0. -1.
     999902    2    1    2    0    0 -0.19970777656E-01 -0.43832515696E-02  0.10219011124E-01  0.10210723308E+01  0.10208164534E+01 0.  0.
     999903    2    3    3    0    0 -0.78989921303E-01 -0.97697466712E-01  0.38720613701E-01  0.13371493748E+00  0.24417123316E-01 0.  0.
         14    1    1    2    0    0  0.19970777656E-01  0.43832515696E-02 -0.10219011124E-01  0.22857669235E-01  0.00000000000E+00 0.  1.
     999901    1    3    3    0    0  0.59019143648E-01  0.93314215143E-01 -0.28501602577E-01  0.88735739328E+00  0.88000000000E+00 0. -1.
        -11    1    4    4    0    0 -0.64834295026E-01 -0.86141374645E-01  0.24523826276E-01  0.11056898938E+00  0.51100000000E-03 0. -1.
         11    1    4    4    0    0 -0.14155626278E-01 -0.11556092068E-01  0.14196787425E-01  0.23145948099E-01  0.51100000000E-03 0.  1.
</event>
<event>
 8    1  0.1093753E+005  0.1043930E+01  0.7957747E-01            NaN
         13   -1    0    0    0    0  0.00000000000E+00  0.00000000000E+00  0.74505805969E-08  0.10566000000E+00  0.10566000000E+00 0.  1.
     999900   -1    0    0    0    0 -0.00000000000E+00 -0.00000000000E+00 -0.74505805969E-08  0.93827000000E+00  0.93827000000E+00 0. -1.
     999902    2    1    2    0    0 -0.75623845197E-02  0.21697234044E-01 -0.64856162028E-02  0.10200548489E+01  0.10197754026E+01 0.  0.
     999903    2    3    3    0    0  0.99230664805E-01 -0.78435239683E-01 -0.32690100999E-02  0.12795529486E+00  0.19054117508E-01 0.  0.
         14    1    1    2    0    0  0.75623845197E-02 -0.21697234044E-01  0.64856162028E-02  0.23875151147E-01  0.00000000000E+00 0.  1.
     999901    1    3    3    0    0 -0.10679304932E+00  0.10013247373E+00 -0.32166061029E-02  0.89209955399E+00  0.88000000000E+00 0.  1.
        -11    1    4    4    0    0  0.47736726557E-01 -0.30520433887E-01  0.61206069853E-02  0.56991358098E-01  0.51100000000E-03 0. -1.
         11    1    4    4    0    0  0.51493938248E-01 -0.47914805797E-01 -0.93896170852E-02  0.70963936762E-01  0.51100000000E-03 0.  1.
</event>
<event>
 8    1  0.1093753E+005  0.1043930E+01  0.7957747E-01            NaN
         13   -1    0    0    0    0  0.00000000000E+00  0.00000000000E+00  0.74505805969E-08  0.10566000000E+00  0.10566000000E+00 0.  1.
     999900   -1    0    0    0    0 -0.00000000000E+00 -0.00000000000E+00 -0.74505805969E-08  0.93827000000E+00  0.93827000000E+00 0.  1.
     999902    2    1    2    0    0 -0.84379329820E-04  0.21988058884E-01  0.55733874955E-02  0.10212464266E+01  0.10209944757E+01 0.  0.
     999903    2    3    3    0    0  0.56480755281E-02 -0.10957218825E+00  0.65547255094E-01  0.12942927918E+00  0.20433562190E-01 0.  0.
         14    1    1    2    0    0  0.84379329820E-04 -0.21988058884E-01 -0.55733874955E-02  0.22683573385E-01  0.00000000000E+00 0. -1.
     999901    1    3    3    0    0 -0.57324548579E-02  0.13156024713E+00 -0.59973867598E-01  0.89181714743E+00  0.88000000000E+00 0.  1.
        -11    1    4    4    0    0  0.92230367527E-02 -0.44728199516E-01  0.35625613970E-01  0.57923412629E-01  0.51100000000E-03 0. -1.
         11    1    4    4    0    0 -0.35749612246E-02 -0.64843988734E-01  0.29921641124E-01  0.71505866551E-01  0.51100000000E-03 0.  1.
</event>
<event>
 8    1  0.1093753E+005  0.1043930E+01  0.7957747E-01            NaN
         13   -1    0    0    0    0  0.00000000000E+00  0.00000000000E+00  0.74505805969E-08  0.10566000000E+00  0.10566000000E+00 0.  1.
     999900   -1    0    0    0    0 -0.00000000000E+00 -0.00000000000E+00 -0.74505805969E-08  0.93827000000E+00  0.93827000000E+00 0.  1.
     999902    2    1    2    0    0  0.93779313726E-02 -0.44133027496E-02 -0.21470149293E-01  0.10200890657E+01  0.10198104293E+01 0.  0.
     999903    2    3    3    0    0  0.30274739403E-01  0.12502130784E-01 -0.12761924300E+00  0.13330248563E+00  0.20248910400E-01 0.  0.
         14    1    1    2    0    0 -0.93779313726E-02  0.44133027496E-02  0.21470149293E-01  0.23840934307E-01  0.00000000000E+00 0.  1.
     999901    1    3    3    0    0 -0.20896808030E-01 -0.16915433534E-01  0.10614909371E+00  0.88678658006E+00  0.88000000000E+00 0. -1.
        -11    1    4    4    0    0  0.10998732973E-01 -0.52354810033E-02 -0.45484728011E-01  0.47090381094E-01  0.51100000000E-03 0. -1.
         11    1    4    4    0    0  0.19276006430E-01  0.17737611788E-01 -0.82134514989E-01  0.86212104540E-01  0.51100000000E-03 0.  1.
</event>
<event>
 8    1  0.1093753E+005  0.1043930E+01  0.7957747E-01            NaN
         13   -1    0    0    0    0  0.00000000000E+00  0.00000000000E+00  0.74505805969E-08  0.10566000000E+00  0.10566000000E+00 0. -1.
     999900   -1    0    0    0    0 -0.00000000000E+00 -0.00000000000E+00 -0.74505805969E-08  0.93827000000E+00  0.93827000000E+00 0. -1.
     999902    2    1    2    0    0  0.15370813138E-01  0.88841416896E-02  0.13872389597E-01  0.10213992862E+01  0.10211507572E+01 0.  0.
     999903    2    3    3    0    0 -0.11659773317E+00  0.45838786877E-01  0.30972287933E-01  0.13062785115E+00  0.20202156157E-01 0.  0.
         14    1    1    2    0    0 -0.15370813138E-01 -0.88841416896E-02 -0.13872389597E-01  0.22530713775E-01  0.00000000000E+00 0.  1.
     999901    1    3    3    0    0  0.13196854631E+00 -0.36954645188E-01 -0.17099898335E-01  0.89077143507E+00  0.88000000000E+00 0.  1.
        -11    1    4    4    0    0 -0.50137850469E-01  0.15836011174E-01  0.34782981294E-02  0.52696707472E-01  0.51100000000E-03 0. -1.
         11    1    4    4    0    0 -0.66459882705E-01  0.30002775704E-01  0.27493989803E-01  0.77931143681E-01  0.51100000000E-03 0.  1.
</event>
<event>
 8    1  0.1093753E+005  0.1043930E+01  0.7957747E-01            NaN
         13   -1    0    0    0    0  0.00000000000E+00  0.00000000000E+00  0.74505805969E-08  0.10566000000E+00  0.10566000000E+00 0. -1.
     999900   -1    0    0    0    0 -0.00000000000E+00 -0.00000000000E+00 -0.74505805969E-08  0.93827000000E+00  0.93827000000E+00 0.  1.
     999902    2    1    2    0    0 -0.16819158968E-01 -0.87812116275E-02 -0.15232941621E-01  0.10195982040E+01  0.10193078344E+01 0.  0.
     999903    2    3    3    0    0  0.18507711308E-02 -0.46914092723E-01  0.11803186725E+00  0.12855264277E+00  0.19745957242E-01 0.  0.
         14    1    1    2    0    0  0.16819158968E-01  0.87812116275E-02  0.15232941621E-01  0.24331795998E-01  0.00000000000E+00 0. -1.
     999901    1    3    3    0    0 -0.18669930099E-01  0.38132881095E-01 -0.13326480887E+00  0.89104556123E+00  0.88000000000E+00 0.  1.
        -11    1    4    4    0    0 -0.67521600776E-02 -0.19167798364E-01  0.33704415129E-01  0.39360448169E-01  0.51100000000E-03 0.  1.
         11    1    4    4    0    0  0.86029312084E-02 -0.27746294359E-01  0.84327452117E-01  0.89192194600E-01  0.51100000000E-03 0. -1.
</event>
<event>
 8    1  0.1093753E+005  0.1043930E+01  0.7957747E-01            NaN
         13   -1    0    0    0    0  0.00000000000E+00  0.00000000000E+00  0.74505805969E-08  0.10566000000E+00  0.10566000000E+00 0. -1.
     999900   -1    0    0    0    0 -0.00000000000E+00 -0.00000000000E+00 -0.74505805969E-08  0.93827000000E+00  0.93827000000E+00 0. -1.
     999902    2    1    2    0    0 -0.19777358509E-01  0.13183784334E-01  0.54118851753E-03  0.10201550349E+01  0.10198779566E+01 0.  0.
     999903    2    3    3    0    0  0.96935194570E-01 -0.80464031427E-01  0.45372524626E-02  0.12751417660E+00  0.19193391405E-01 0.  0.
         14    1    1    2    0    0  0.19777358509E-01 -0.13183784334E-01 -0.54118851753E-03  0.23774965068E-01  0.00000000000E+00 0. -1.
     999901    1    3    3    0    0 -0.11671255308E+00  0.93647815761E-01 -0.39960639451E-02  0.89264085834E+00  0.88000000000E+00 0. -1.
        -11    1    4    4    0    0  0.42211876852E-01 -0.23561411847E-01 -0.11782585809E-02  0.48359405392E-01  0.51100000000E-03 0.  1.
         11    1    4    4    0    0  0.54723317718E-01 -0.56902619579E-01  0.57155110435E-02  0.79154771205E-01  0.51100000000E-03 0. -1.
</event>
<event>
 8    1  0.1093753E+005  0.1043930E+01  0.7957747E-01            NaN
         13   -1    0    0    0    0  0.00000000000E+00  0.00000000000E+00  0.74505805969E-08  0.10566000000E+00  0.10566000000E+00 0.  1.
     999900   -1    0    0    0    0 -0.00000000000E+00 -0.00000000000E+00 -0.74505805969E-08  0.93827000000E+00  0.93827000000E+00 0. -1.
     999902    2    1    2    0    0 -0.18549666437E-01 -0.12204863971E-02 -0.14335422690E-01  0.10204548204E+01  0.10201847659E+01 0.  0.
     999903    2    3    3    0    0  0.17957459827E-01  0.11098375470E+00  0.60698838880E-01  0.12941458431E+00  0.20589352062E-01 0.  0.
         14    1    1    2    0    0  0.18549666437E-01  0.12204863971E-02  0.14335422690E-01  0.23475179566E-01  0.00000000000E+00 0.  1.
     999901    1    3    3    0    0 -0.36507126264E-01 -0.11220424110E+00 -0.75034261570E-01  0.89104023613E+00  0.88000000000E+00 0.  1.
        -11    1    4    4    0    0  0.68528162426E-02  0.83874978805E-01  0.37932833284E-01  0.92309989286E-01  0.51100000000E-03 0.  1.
         11    1    4    4    0    0  0.11104643584E-01  0.27108775898E-01  0.22766005596E-01  0.37104595021E-01  0.51100000000E-03 0. -1.
</event>
<event>
 8    1  0.1093753E+005  0.1043930E+01  0.7957747E-01            NaN
         13   -1    0    0    0    0  0.00000000000E+00  0.00000000000E+00  0.74505805969E-08  0.10566000000E+00  0.10566000000E+00 0. -1.
     999900   -1    0    0    0    0 -0.00000000000E+00 -0.00000000000E+00 -0.74505805969E-08  0.93827000000E+00  0.93827000000E+00 0.  1.
     999902    2    1    2    0    0 -0.11683786764E-01 -0.14348846659E-01  0.12530741997E-01  0.10215822984E+01  0.10213378347E+01 0.  0.
     999903    2    3    3    0    0  0.47572072812E-01  0.85342501689E-01  0.85413149108E-01  0.13098616818E+00  0.17763037671E-01 0.  0.
         14    1    1    2    0    0  0.11683786764E-01  0.14348846659E-01 -0.12530741997E-01  0.22347701640E-01  0.00000000000E+00 0. -1.
     999901    1    3    3    0    0 -0.59255859576E-01 -0.99691348348E-01 -0.72882407112E-01  0.89059613018E+00  0.88000000000E+00 0.  1.
        -11    1    4    4    0    0  0.41668103961E-01  0.83103931356E-01  0.80319527855E-01  0.12285756782E+00  0.51100000000E-03 0. -1.
         11    1    4    4    0    0  0.59039688512E-02  0.22385703327E-02  0.50936212537E-02  0.81286003596E-02  0.51100000000E-03 0.  1.
</event>
<event>
 8    1  0.1093753E+005  0.1043930E+01  0.7957747E-01            NaN
         13   -1    0    0    0    0  0.00000000000E+00  0.00000000000E+00  0.74505805969E-08  0.10566000000E+00  0.10566000000E+00 0.  1.
     999900   -1    0    0    0    0 -0.00000000000E+00 -0.00000000000E+00 -0.74505805969E-08  0.93827000000E+00  0.93827000000E+00 0. -1.
     999902    2    1    2    0    0  0.11939768433E-01 -0.15676758474E-01  0.12847851789E-01  0.10204058396E+01  0.10201346438E+01 0.  0.
     999903    2    3    3    0    0  0.62800892550E-01  0.11055792346E+00 -0.14650656080E-01  0.12951964216E+00  0.19841608757E-01 0.  0.
         14    1    1    2    0    0 -0.11939768433E-01  0.15676758474E-01 -0.12847851789E-01  0.23524160391E-01  0.00000000000E+00 0. -1.
     999901    1    3    3    0    0 -0.50861124117E-01 -0.12623468193E+00  0.27498507869E-01  0.89088619745E+00  0.88000000000E+00 0. -1.
        -11    1    4    4    0    0  0.46258354568E-01  0.61798438890E-01 -0.90499362375E-02  0.77724158944E-01  0.51100000000E-03 0.  1.
         11    1    4    4    0    0  0.16542537982E-01  0.48759484565E-01 -0.56007198423E-02  0.51795483217E-01  0.51100000000E-03 0. -1.
</event>
<event>
 8    1  0.1093753E+005  0.1043930E+01  0.7957747E-01            NaN
         13   -1    0    0    0    0  0.00000000000E+00  0.00000000000E+00  0.74505805969E-08  0.10566000000E+00  0.10566000000E+00 0. -1.
     999900   -1    0    0    0    0 -0.00000000000E+00 -0.00000000000E+00 -0.74505805969E-08  0.93827000000E+00  0.93827000000E+00 0. -1.
     999902    2    1    2    0    0  0.14159162173E-01 -0.80063112443E-02  0.17265476121E-01  0.10202091324E+01  0.10199333284E+01 0.  0.
     999903    2    3    3    0    0 -0.52375968379E-01  0.11598755681E+00 -0.37509843630E-02  0.12878157253E+00  0.19346010971E-01 0.  0.
         14    1    1    2    0    0 -0.14159162173E-01  0.80063112443E-02 -0.17265476121E-01  0.23720867583E-01  0.00000000000E+00 0.  1.
     999901    1    3    3    0    0  0.66535130553E-01 -0.12399386806E+00  0.21016460484E-01  0.89142755989E+00  0.88000000000E+00 0.  1.
        -11    1    4    4    0    0 -0.32560551718E-01  0.52770177556E-01 -0.72823365884E-02  0.62435364295E-01  0.51100000000E-03 0.  1.
         11    1    4    4    0    0 -0.19815416661E-01  0.63217379258E-01  0.35313522254E-02  0.66346208236E-01  0.51100000000E-03 0. -1.
</event>
<event>
 8    1  0.1093753E+005  0.1043930E+01  0.7957747E-01            NaN
         13   -1    0    0    0    0  0.00000000000E+00  0.00000000000E+00  0.74505805969E-08  0.10566000000E+00  0.10566000000E+00 0.  1.
     999900   -1    0    0    0    0 -0.00000000000E+00 -0.00000000000E+00 -0.74505805969E-08  0.93827000000E+00  0.93827000000E+00 0. -1.
     999902    2    1    2    0    0 -0.19902119524E-01  0.10037365762E-01  0.15184606680E-02  0.10215883618E+01  0.10213440323E+01 0.  0.
     999903    2    3    3    0    0  0.98864012664E-01 -0.47067915536E-01 -0.65582341115E-01  0.12924934279E+00  0.20368295798E-01 0.  0.
         14    1    1    2    0    0  0.19902119524E-01 -0.10037365762E-01 -0.15184606680E-02  0.22341638163E-01  0.00000000000E+00 0.  1.
     999901    1    3    3    0    0 -0.11876613219E+00  0.57105281299E-01  0.67100801783E-01  0.89233901904E+00  0.88000000000E+00 0. -1.
        -11    1    4    4    0    0  0.55111280661E-01 -0.35297873902E-01 -0.45360638270E-01  0.79630658564E-01  0.51100000000E-03 0. -1.
         11    1    4    4    0    0  0.43752732003E-01 -0.11770041635E-01 -0.20221702844E-01  0.49618684230E-01  0.51100000000E-03 0.  1.
</event>
<event>
 8    1  0.1093753E+005  0.1043930E+01  0.7957747E-01            NaN
         13   -1    0    0    0    0  0.00000000000E+00  0.00000000000E+00  0.74505805969E-08  0.10566000000E+00  0.10566000000E+00 0. -1.
     999900   -1    0    0    0    0 -0.00000000000E+00 -0.00000000000E+00 -0.74505805969E-08  0.93827000000E+00  0.93827000000E+00 0. -1.
     999902    2    1    2    0    0  0.32645883034E-02 -0.10289286722E-01  0.21364662296E-01  0.10199930881E+01  0.10197121770E+01 0.  0.
     999903    2    3    3    0    0  0.18404975589E-01  0.12470536358E+00  0.18630091856E-01  0.12956607544E+00  0.23454567812E-01 0.  0.
         14    1    1    2    0    0 -0.32645883034E-02  0.10289286722E-01 -0.21364662296E-01  0.23936911936E-01  0.00000000000E+00 0.  1.
     999901    1    3    3    0    0 -0.15140387285E-01 -0.13499465030E+00  0.27345704398E-02  0.89042701262E+00  0.88000000000E+00 0. -1.
        -11    1    4    4    0    0 -0.35965591566E-02  0.38433603336E-01  0.77876058094E-05  0.38604899752E-01  0.51100000000E-03 0. -1.
         11    1    4    4    0    0  0.22001534745E-01  0.86271760239E-01  0.18622304250E-01  0.90961175688E-01  0.51100000000E-03 0.  1.
</event>
<event>
 8    1  0.1093753E+005  0.1043930E+01  0.7957747E-01            NaN
         13   -1    0    0    0    0  0.00000000000E+00  0.00000000000E+00  0.74505805969E-08  0.10566000000E+00  0.10566000000E+00 0. -1.
     999900   -1    0    0    0    0 -0.00000000000E+00 -0.00000000000E+00 -0.74505805969E-08  0.93827000000E+00  0.93827000000E+00 0. -1.
     999902    2    1    2    0    0 -0.40275661403E-03 -0.22510575334E-01  0.58809576502E-02  0.10206604087E+01  0.10203951176E+01 0.  0.
     999903    2    3    3    0    0 -0.18161160913E-01  0.10093571125E+00  0.75618698436E-01  0.12913491887E+00  0.20971269567E-01 0.  0.
         14    1    1    2    0    0  0.40275661403E-03  0.22510575334E-01 -0.58809576502E-02  0.23269591265E-01  0.00000000000E+00 0. -1.
     999901    1    3    3    0    0  0.17758404299E-01 -0.12344628658E+00 -0.69737740786E-01  0.89152548987E+00  0.88000000000E+00 0.  1.
        -11    1    4    4    0    0 -0.84138991799E-03  0.50246717063E-01  0.28397728711E-01  0.57724627583E-01  0.51100000000E-03 0.  1.
         11    1    4    4    0    0 -0.17319770995E-01  0.50688994183E-01  0.47220969724E-01  0.71410291285E-01  0.51100000000E-03 0. -1.
</event>
<event>
 8    1  0.1093753E+005  0.1043930E+01  0.7957747E-01            NaN
         13   -1    0    0    0    0  0.00000000000E+00  0.00000000000E+00  0.74505805969E-08  0.10566000000E+00  0.10566000000E+00 0.  1.
     999900   -1    0    0    0    0 -0.00000000000E+00 -0.00000000000E+00 -0.74505805969E-08  0.93827000000E+00  0.93827000000E+00 0.  1.
     999902    2    1    2    0    0  0.88443092324E-02 -0.10440993084E-01  0.13718570373E-01  0.10245538467E+01  0.10243706114E+01 0.  0.
     999903    2    3    3    0    0  0.82667261451E-01  0.95679214555E-02  0.10586090322E+00  0.13644327116E+00  0.22018496300E-01 0.  0.
         14    1    1    2    0    0 -0.88443092324E-02  0.10440993084E-01 -0.13718570373E-01  0.19376153268E-01  0.00000000000E+00 0. -1.
     999901    1    3    3    0    0 -0.73822952219E-01 -0.20008914539E-01 -0.92142332842E-01  0.88811057557E+00  0.88000000000E+00 0.  1.
        -11    1    4    4    0    0  0.63613653216E-01 -0.12847173157E-02  0.71859419748E-01  0.95981168474E-01  0.51100000000E-03 0. -1.
         11    1    4    4    0    0  0.19053608236E-01  0.10852638771E-01  0.34001483467E-01  0.40462102689E-01  0.51100000000E-03 0.  1.
</event>
<event>
 8    1  0.1113328E+005  0.1043930E+01  0.7957747E-01            NaN
         13   -1    0    0    0    0  0.00000000000E+00  0.00000000000E+00  0.74505805969E-08  0.10566000000E+00  0.10566000000E+00 0.  1.
     999900   -1    0    0    0    0 -0.00000000000E+00 -0.00000000000E+00 -0.74505805969E-08  0.93827000000E+00  0.93827000000E+00 0.  1.
     999902    2    1    2    0    0 -0.18050897096E-01  0.10776909348E-01  0.97919464870E-02  0.10207382153E+01  0.10204747157E+01 0.  0.
     999903    2    3    3    0    0  0.81072395566E-01  0.75204577373E-01 -0.64738450132E-01  0.12971008356E+00  0.20129010673E-01 0.  0.
         14    1    1    2    0    0  0.18050897096E-01 -0.10776909348E-01 -0.97919464870E-02  0.23191784689E-01  0.00000000000E+00 0. -1.
     999901    1    3    3    0    0 -0.99123292661E-01 -0.64427668025E-01  0.74530396619E-01  0.89102813175E+00  0.88000000000E+00 0. -1.
        -11    1    4    4    0    0  0.36679021720E-01  0.21878191621E-01 -0.29305072723E-01  0.51798207607E-01  0.51100000000E-03 0. -1.
         11    1    4    4    0    0  0.44393373845E-01  0.53326385751E-01 -0.35433377409E-01  0.77911875952E-01  0.51100000000E-03 0.  1.
</event>
<event>
 8    1  0.1093753E+005  0.1043930E+01  0.7957747E-01            NaN
         13   -1    0    0    0    0  0.00000000000E+00  0.00000000000E+00  0.74505805969E-08  0.10566000000E+00  0.10566000000E+00 0. -1.
     999900   -1    0    0    0    0 -0.00000000000E+00 -0.00000000000E+00 -0.74505805969E-08  0.93827000000E+00  0.93827000000E+00 0. -1.
     999902    2    1    2    0    0  0.21703762630E-01 -0.36751571299E-03 -0.72944327835E-02  0.10210302810E+01  0.10207734507E+01 0.  0.
     999903    2    3    3    0    0  0.95563258599E-01  0.87273957842E-01 -0.25137904707E-01  0.13341851761E+00  0.20481857289E-01 0.  0.
         14    1    1    2    0    0 -0.21703762630E-01  0.36751571299E-03  0.72944327835E-02  0.22899718988E-01  0.00000000000E+00 0. -1.
     999901    1    3    3    0    0 -0.73859495969E-01 -0.87641473555E-01  0.17843471923E-01  0.88761176340E+00  0.88000000000E+00 0. -1.
        -11    1    4    4    0    0  0.72370695593E-02  0.15005157400E-01 -0.59161825353E-02  0.17685933993E-01  0.51100000000E-03 0. -1.
         11    1    4    4    0    0  0.88326189039E-01  0.72268800442E-01 -0.19221722171E-01  0.11573258362E+00  0.51100000000E-03 0.  1.
</event>
<event>
 8    1  0.1093753E+005  0.1043930E+01  0.7957747E-01            NaN
         13   -1    0    0    0    0  0.00000000000E+00  0.00000000000E+00  0.74505805969E-08  0.10566000000E+00  0.10566000000E+00 0. -1.
     999900   -1    0    0    0    0 -0.00000000000E+00 -0.00000000000E+00 -0.74505805969E-08  0.93827000000E+00  0.93827000000E+00 0. -1.
     999902    2    1    2    0    0 -0.36446343232E-02  0.10343303219E-01  0.16675053625E-01  0.10239719266E+01  0.10237774083E+01 0.  0.
     999903    2    3    3    0    0  0.87181672143E-01  0.91661461853E-01  0.43156364751E-01  0.13517311881E+00  0.20170093803E-01 0.  0.
         14    1    1    2    0    0  0.36446343232E-02 -0.10343303219E-01 -0.16675053625E-01  0.19958073410E-01  0.00000000000E+00 0.  1.
     999901    1    3    3    0    0 -0.90826306466E-01 -0.81318158633E-01 -0.26481311126E-01  0.88879880778E+00  0.88000000000E+00 0. -1.
        -11    1    4    4    0    0  0.59709428538E-01  0.52155484222E-01  0.19980200254E-01  0.81761114926E-01  0.51100000000E-03 0. -1.
         11    1    4    4    0    0  0.27472243605E-01  0.39505977631E-01  0.23176164497E-01  0.53412003886E-01  0.51100000000E-03 0.  1.
</event>
<event>
 8    1  0.1093753E+005  0.1043930E+01  0.7957747E-01            NaN
         13   -1    0    0    0    0  0.00000000000E+00  0.00000000000E+00  0.74505805969E-08  0.10566000000E+00  0.10566000000E+00 0. -1.
     999900   -1    0    0    0    0 -0.00000000000E+00 -0.00000000000E+00 -0.74505805969E-08  0.93827000000E+00  0.93827000000E+00 0.  1.
     999902    2    1    2    0    0 -0.19981425290E-01 -0.10305508758E-01  0.78831216338E-02  0.10201055488E+01  0.10198273022E+01 0.  0.
     999903    2    3    3    0    0  0.42136033311E-01  0.10316264725E+00 -0.59433566823E-01  0.12810491113E+00  0.21460249275E-01 0.  0.
         14    1    1    2    0    0  0.19981425290E-01  0.10305508758E-01 -0.78831216338E-02  0.23824451181E-01  0.00000000000E+00 0.  1.
     999901    1    3    3    0    0 -0.62117458600E-01 -0.11346815601E+00  0.67316688456E-01  0.89200063769E+00  0.88000000000E+00 0. -1.
        -11    1    4    4    0    0  0.64789805307E-02  0.34935356116E-01 -0.11199108726E-01  0.37257716689E-01  0.51100000000E-03 0.  1.
         11    1    4    4    0    0  0.35657052780E-01  0.68227291138E-01 -0.48234458096E-01  0.90847194441E-01  0.51100000000E-03 0. -1.
</event>
<event>
 8    1  0.1093753E+005  0.1043930E+01  0.7957747E-01            NaN
         13   -1    0    0    0    0  0.00000000000E+00  0.00000000000E+00  0.74505805969E-08  0.10566000000E+00  0.10566000000E+00 0. -1.
     999900   -1    0    0    0    0 -0.00000000000E+00 -0.00000000000E+00 -0.74505805969E-08  0.93827000000E+00  0.93827000000E+00 0.  1.
     999902    2    1    2    0    0  0.23147077784E-01 -0.17545868208E-02 -0.27153528598E-02  0.10205582451E+01  0.10202905923E+01 0.  0.
     999903    2    3    3    0    0 -0.55222349215E-01  0.64900425086E-01  0.94396360689E-01  0.12925844000E+00  0.23140837743E-01 0.  0.
         14    1    1    2    0    0 -0.23147077784E-01  0.17545868208E-02  0.27153528598E-02  0.23371754876E-01  0.00000000000E+00 0. -1.
     999901    1    3    3    0    0  0.78369426998E-01 -0.66655011907E-01 -0.97111713549E-01  0.89129980512E+00  0.88000000000E+00 0.  1.
        -11    1    4    4    0    0 -0.24179114100E-01  0.15430020920E-01  0.41560378152E-01  0.50499913440E-01  0.51100000000E-03 0.  1.
         11    1    4    4    0    0 -0.31043235115E-01  0.49470404166E-01  0.52835982537E-01  0.78758526563E-01  0.51100000000E-03 0. -1.
</event>
<event>
 8    1  0.1093753E+005  0.1043930E+01  0.7957747E-01            NaN
         13   -1    0    0    0    0  0.00000000000E+00  0.00000000000E+00  0.74505805969E-08  0.10566000000E+00  0.10566000000E+00 0. -1.
     999900   -1    0    0    0    0 -0.00000000000E+00 -0.00000000000E+00 -0.74505805969E-08  0.93827000000E+00  0.93827000000E+00 0. -1.
     999902    2    1    2    0    0 -0.64088632762E-02 -0.85265310178E-02  0.21393972044E-01  0.10200244086E+01  0.10197442409E+01 0.  0.
     999903    2    3    3    0    0 -0.10824726870E+00 -0.53002296137E-01 -0.45335525386E-01  0.13052905712E+00  0.21349714617E-01 0.  0.
         14    1    1    2    0    0  0.64088632762E-02  0.85265310178E-02 -0.21393972044E-01  0.23905591385E-01  0.00000000000E+00 0.  1.
     999901    1    3    3    0    0  0.10183840542E+00  0.44475765119E-01  0.66729497429E-01  0.88949535149E+00  0.88000000000E+00 0.  1.
        -11    1    4    4    0    0 -0.70189746975E-01 -0.24331086097E-01 -0.33114268055E-01  0.81335221158E-01  0.51100000000E-03 0.  1.
         11    1    4    4    0    0 -0.38057521724E-01 -0.28671210040E-01 -0.12221257331E-01  0.49193835963E-01  0.51100000000E-03 0. -1.
</event>
<event>
 8    1  0.1093753E+005  0.1043930E+01  0.7957747E-01            NaN
         13   -1    0    0    0    0  0.00000000000E+00  0.00000000000E+00  0.74505805969E-08  0.10566000000E+00  0.10566000000E+00 0. -1.
     999900   -1    0    0    0    0 -0.00000000000E+00 -0.00000000000E+00 -0.74505805969E-08  0.93827000000E+00  0.93827000000E+00 0. -1.
     999902    2    1    2    0    0 -0.44608782893E-02 -0.22872949546E-01  0.49273578467E-02  0.10201108877E+01  0.10198327672E+01 0.  0.
     999903    2    3    3    0    0  0.83548540127E-01  0.83773023670E-01  0.45458272154E-01  0.12839244762E+00  0.20491169987E-01 0.  0.
         14    1    1    2    0    0  0.44608782893E-02  0.22872949546E-01 -0.49273578467E-02  0.23819112314E-01  0.00000000000E+00 0. -1.
     999901    1    3    3    0    0 -0.88009418416E-01 -0.10664597322E+00 -0.40530914307E-01  0.89171844006E+00  0.88000000000E+00 0. -1.
        -11    1    4    4    0    0  0.38898482511E-01  0.24926830915E-01  0.17929879815E-01  0.49559868364E-01  0.51100000000E-03 0.  1.
         11    1    4    4    0    0  0.44650057616E-01  0.58846192756E-01  0.27528392339E-01  0.78832579259E-01  0.51100000000E-03 0. -1.
</event>
<event>
 8    1  0.1093753E+005  0.1043930E+01  0.7957747E-01            NaN
         13   -1    0    0    0    0  0.00000000000E+00  0.00000000000E+00  0.74505805969E-08  0.10566000000E+00  0.10566000000E+00 0. -1.
     999900   -1    0    0    0    0 -0.00000000000E+00 -0.00000000000E+00 -0.74505805969E-08  0.93827000000E+00  0.93827000000E+00 0. -1.
     999902    2    1    2    0    0 -0.76103282462E-02  0.12720592696E-01  0.17936685473E-01  0.10206608088E+01  0.10203955269E+01 0.  0.
     999903    2    3    3    0    0 -0.93489018941E-01 -0.53929006271E-01  0.73822392352E-01  0.13221242491E+00  0.19540862523E-01 0.  0.
         14    1    1    2    0    0  0.76103282462E-02 -0.12720592696E-01 -0.17936685473E-01  0.23269191226E-01  0.00000000000E+00 0.  1.
     999901    1    3    3    0    0  0.85878690695E-01  0.66649598967E-01 -0.55885706879E-01  0.88844838386E+00  0.88000000000E+00 0.  1.
        -11    1    4    4    0    0 -0.48977501778E-01 -0.37704564888E-01  0.35544165033E-01  0.71302725633E-01  0.51100000000E-03 0. -1.
         11    1    4    4    0    0 -0.44511517163E-01 -0.16224441383E-01  0.38278227319E-01  0.60909699277E-01  0.51100000000E-03 0.  1.
</event>
<event>
 8    1  0.1093753E+005  0.1043930E+01  0.7957747E-01            NaN
         13   -1    0    0    0    0  0.00000000000E+00  0.00000000000E+00  0.74505805969E-08  0.10566000000E+00  0.10566000000E+00 0. -1.
     999900   -1    0    0    0    0 -0.00000000000E+00 -0.00000000000E+00 -0.74505805969E-08  0.93827000000E+00  0.93827000000E+00 0. -1.
     999902    2    1    2    0    0  0.18382474822E-01 -0.40258752161E-02  0.13137063654E-01  0.10209799348E+01  0.10207219610E+01 0.  0.
     999903    2    3    3    0    0  0.61952991796E-01 -0.58807553991E-01  0.10097547813E+00  0.13384127069E+00  0.20516748234E-01 0.  0.
         14    1    1    2    0    0 -0.18382474822E-01  0.40258752161E-02 -0.13137063654E-01  0.22950065213E-01  0.00000000000E+00 0.  1.
     999901    1    3    3    0    0 -0.43570516974E-01  0.54781678775E-01 -0.87838414472E-01  0.88713866410E+00  0.88000000000E+00 0.  1.
        -11    1    4    4    0    0  0.24053791389E-01 -0.10081979079E-01  0.28382063045E-01  0.38549109017E-01  0.51100000000E-03 0. -1.
         11    1    4    4    0    0  0.37899200407E-01 -0.48725574912E-01  0.72593415082E-01  0.95292161673E-01  0.51100000000E-03 0.  1.
</event>
<event>
 8    1  0.1093753E+005  0.1043930E+01  0.7957747E-01            NaN
         13   -1    0    0    0    0  0.00000000000E+00  0.00000000000E+00  0.74505805969E-08  0.10566000000E+00  0.10566000000E+00 0. -1.
     999900   -1    0    0    0    0 -0.00000000000E+00 -0.00000000000E+00 -0.74505805969E-08  0.93827000000E+00  0.93827000000E+00 0.  1.
     999902    2    1    2    0    0 -0.18955003608E-01  0.49458796692E-02  0.10732337570E-01  0.10215931032E+01  0.10213488785E+01 0.  0.
     999903    2    3    3    0    0  0.31753682298E-01 -0.12273487224E+00  0.25374382475E-01  0.13081359364E+00  0.19904567080E-01 0.  0.
         14    1    1    2    0    0  0.18955003608E-01 -0.49458796692E-02 -0.10732337570E-01  0.22336896767E-01  0.00000000000E+00 0. -1.
     999901    1    3    3    0    0 -0.50708685905E-01  0.12768075191E+00 -0.14642044905E-01  0.89077950959E+00  0.88000000000E+00 0.  1.
        -11    1    4    4    0    0  0.23170534113E-01 -0.56588462866E-01  0.17760705461E-01  0.63677559313E-01  0.51100000000E-03 0.  1.
         11    1    4    4    0    0  0.85831481850E-02 -0.66146409377E-01  0.76136770139E-02  0.67136034325E-01  0.51100000000E-03 0. -1.
</event>
<event>
 8    1  0.1093753E+005  0.1043930E+01  0.7957747E-01            NaN
         13   -1    0    0    0    0  0.00000000000E+00  0.00000000000E+00  0.74505805969E-08  0.10566000000E+00  0.10566000000E+00 0.  1.
     999900   -1    0    0    0    0 -0.00000000000E+00 -0.00000000000E+00 -0.74505805969E-08  0.93827000000E+00  0.93827000000E+00 0.  1.
     999902    2    1    2    0    0 -0.97796651372E-02  0.19426315423E-01 -0.46929779357E-02  0.10216803343E+01  0.10214380343E+01 0.  0.
     999903    2    3    3    0    0  0.54309115755E-01 -0.80236729055E-01  0.83434217136E-01  0.12937629601E+00  0.19736885169E-01 0.  0.
         14    1    1    2    0    0  0.97796651372E-02 -0.19426315423E-01  0.46929779357E-02  0.22249665683E-01  0.00000000000E+00 0. -1.
     999901    1    3    3    0    0 -0.64088780892E-01  0.99663044479E-01 -0.88127195071E-01  0.89230403831E+00  0.88000000000E+00 0.  1.
        -11    1    4    4    0    0  0.36992900576E-01 -0.53863658047E-01  0.43586148599E-01  0.78547958738E-01  0.51100000000E-03 0.  1.
         11    1    4    4    0    0  0.17316215179E-01 -0.26373071008E-01  0.39848068536E-01  0.50828337270E-01  0.51100000000E-03 0. -1.
</event>
<event>
 8    1  0.1093753E+005  0.1043930E+01  0.7957747E-01            NaN
         13   -1    0    0    0    0  0.00000000000E+00  0.00000000000E+00  0.74505805969E-08  0.10566000000E+00  0.10566000000E+00 0. -1.
     999900   -1    0    0    0    0 -0.00000000000E+00 -0.00000000000E+00 -0.74505805969E-08  0.93827000000E+00  0.93827000000E+00 0.  1.
     999902    2    1    2    0    0 -0.28006538308E-02 -0.16275174247E-02 -0.23108543441E-01  0.10205955350E+01  0.10203287455E+01 0.  0.
     999903    2    3    3    0    0 -0.15689534490E-01 -0.65903139533E-01 -0.11343336387E+00  0.13354646536E+00  0.19445952744E-01 0.  0.
         14    1    1    2    0    0  0.28006538308E-02  0.16275174247E-02  0.23108543441E-01  0.23334464956E-01  0.00000000000E+00 0. -1.
     999901    1    3    3    0    0  0.12888880660E-01  0.64275622109E-01  0.90324820430E-01  0.88704906968E+00  0.88000000000E+00 0. -1.
        -11    1    4    4    0    0  0.17887841249E-02 -0.27697190198E-01 -0.36139197437E-01  0.45570130633E-01  0.51100000000E-03 0. -1.
         11    1    4    4    0    0 -0.17478318615E-01 -0.38205949335E-01 -0.77294166434E-01  0.87976334727E-01  0.51100000000E-03 0.  1.
</event>
<event>
 8    1  0.1093753E+005  0.1043930E+01  0.7957747E-01            NaN
         13   -1    0    0    0    0  0.00000000000E+00  0.00000000000E+00  0.74505805969E-08  0.10566000000E+00  0.10566000000E+00 0.  1.
     999900   -1    0    0    0    0 -0.00000000000E+00 -0.00000000000E+00 -0.74505805969E-08  0.93827000000E+00  0.93827000000E+00 0.  1.
     999902    2    1    2    0    0  0.96351524711E-02  0.57002949022E-02 -0.20828140614E-01  0.10202838382E+01  0.10200097890E+01 0.  0.
     999903    2    3    3    0    0 -0.75520171183E-02 -0.12213681650E-01 -0.13080653413E+00  0.13309076094E+00  0.19914675298E-01 0.  0.
         14    1    1    2    0    0 -0.96351524711E-02 -0.57002949022E-02  0.20828140614E-01  0.23646161772E-01  0.00000000000E+00 0.  1.
     999901    1    3    3    0    0  0.17187169589E-01  0.17913976552E-01  0.10997839352E+00  0.88719307729E+00  0.88000000000E+00 0. -1.
        -11    1    4    4    0    0  0.38831286457E-02 -0.12366890027E-01 -0.76324952270E-01  0.77419494425E-01  0.51100000000E-03 0.  1.
         11    1    4    4    0    0 -0.11435145764E-01  0.15320837748E-03 -0.54481581864E-01  0.55671266510E-01  0.51100000000E-03 0. -1.
</event>
<event>
 8    1  0.1093753E+005  0.1043930E+01  0.7957747E-01            NaN
         13   -1    0    0    0    0  0.00000000000E+00  0.00000000000E+00  0.74505805969E-08  0.10566000000E+00  0.10566000000E+00 0.  1.
     999900   -1    0    0    0    0 -0.00000000000E+00 -0.00000000000E+00 -0.74505805969E-08  0.93827000000E+00  0.93827000000E+00 0. -1.
     999902    2    1    2    0    0  0.68404583497E-02 -0.17792609325E-01 -0.13780334142E-01  0.10204083839E+01  0.10201372473E+01 0.  0.
     999903    2    3    3    0    0 -0.73750189464E-01  0.65372900752E-01 -0.82727364615E-01  0.13014715950E+00  0.19538671160E-01 0.  0.
         14    1    1    2    0    0 -0.68404583497E-02  0.17792609325E-01  0.13780334142E-01  0.23521616145E-01  0.00000000000E+00 0. -1.
     999901    1    3    3    0    0  0.80590647814E-01 -0.83165510077E-01  0.68947030473E-01  0.89026122436E+00  0.88000000000E+00 0.  1.
        -11    1    4    4    0    0 -0.64594393057E-01  0.60001546474E-01 -0.65215520497E-01  0.10966287625E+00  0.51100000000E-03 0. -1.
         11    1    4    4    0    0 -0.91557964075E-02  0.53713542782E-02 -0.17511844118E-01  0.20484283244E-01  0.51100000000E-03 0.  1.
</event>
<event>
 8    1  0.1093753E+005  0.1043930E+01  0.7957747E-01            NaN
         13   -1    0    0    0    0  0.00000000000E+00  0.00000000000E+00  0.74505805969E-08  0.10566000000E+00  0.10566000000E+00 0. -1.
     999900   -1    0    0    0    0 -0.00000000000E+00 -0.00000000000E+00 -0.74505805969E-08  0.93827000000E+00  0.93827000000E+00 0.  1.
     999902    2    1    2    0    0  0.15543504899E-02 -0.19385600802E-01  0.16226834457E-01  0.10186016033E+01  0.10182866485E+01 0.  0.
     999903    2    3    3    0    0 -0.16178263790E-01  0.91314905129E-01 -0.83150918012E-01  0.12593986146E+00  0.18617879058E-01 0.  0.
         14    1    1    2    0    0 -0.15543504899E-02  0.19385600802E-01 -0.16226834457E-01  0.25328396720E-01  0.00000000000E+00 0.  1.
     999901    1    3    3    0    0  0.17732614280E-01 -0.11070050593E+00  0.99377752468E-01  0.89266174182E+00  0.88000000000E+00 0. -1.
        -11    1    4    4    0    0 -0.47600246800E-02  0.69913197017E-01 -0.57673950298E-01  0.90758242690E-01  0.51100000000E-03 0.  1.
         11    1    4    4    0    0 -0.11418239110E-01  0.21401708112E-01 -0.25476967713E-01  0.35181618771E-01  0.51100000000E-03 0. -1.
</event>
<event>
 8    1  0.1093753E+005  0.1043930E+01  0.7957747E-01            NaN
         13   -1    0    0    0    0  0.00000000000E+00  0.00000000000E+00  0.74505805969E-08  0.10566000000E+00  0.10566000000E+00 0. -1.
     999900   -1    0    0    0    0 -0.00000000000E+00 -0.00000000000E+00 -0.74505805969E-08  0.93827000000E+00  0.93827000000E+00 0.  1.
     999902    2    1    2    0    0 -0.90922179903E-02  0.19402760915E-01  0.56208409142E-02  0.10217775868E+01  0.10215374234E+01 0.  0.
     999903    2    3    3    0    0  0.23268180500E-01  0.33559801413E-01 -0.12349324195E+00  0.13165508758E+00  0.20366953177E-01 0.  0.
         14    1    1    2    0    0  0.90922179903E-02 -0.19402760915E-01 -0.56208409142E-02  0.22152413225E-01  0.00000000000E+00 0. -1.
     999901    1    3    3    0    0 -0.32360398490E-01 -0.14157040498E-01  0.12911408287E+00  0.89012249920E+00  0.88000000000E+00 0. -1.
        -11    1    4    4    0    0  0.44625856002E-02  0.15696774356E-01 -0.73948450388E-01  0.75729372315E-01  0.51100000000E-03 0. -1.
         11    1    4    4    0    0  0.18805594899E-01  0.17863027056E-01 -0.49544791566E-01  0.55925715261E-01  0.51100000000E-03 0.  1.
</event>
<event>
 8    1  0.1093753E+005  0.1043930E+01  0.7957747E-01            NaN
         13   -1    0    0    0    0  0.00000000000E+00  0.00000000000E+00  0.74505805969E-08  0.10566000000E+00  0.10566000000E+00 0.  1.
     999900   -1    0    0    0    0 -0.00000000000E+00 -0.00000000000E+00 -0.74505805969E-08  0.93827000000E+00  0.93827000000E+00 0.  1.
     999902    2    1    2    0    0  0.14527919911E-01  0.15470106725E-01  0.10884230973E-01  0.10200793995E+01  0.10198005345E+01 0.  0.
     999903    2    3    3    0    0 -0.30439470008E-01 -0.16651281697E-01 -0.12191830422E+00  0.12840100285E+00  0.20467489119E-01 0.  0.
         14    1    1    2    0    0 -0.14527919911E-01 -0.15470106725E-01 -0.10884230973E-01  0.23850600472E-01  0.00000000000E+00 0. -1.
     999901    1    3    3    0    0  0.44967389919E-01  0.32121388422E-01  0.13280253520E+00  0.89167839668E+00  0.88000000000E+00 0. -1.
        -11    1    4    4    0    0 -0.17404402214E-01 -0.16651829797E-01 -0.10028889430E+00  0.10314223234E+00  0.51100000000E-03 0.  1.
         11    1    4    4    0    0 -0.13035067794E-01  0.54810037085E-06 -0.21629409928E-01  0.25258770507E-01  0.51100000000E-03 0. -1.
</event>
<event>
 8    1  0.1093753E+005  0.1043930E+01  0.7957747E-01            NaN
         13   -1    0    0    0    0  0.00000000000E+00  0.00000000000E+00  0.74505805969E-08  0.10566000000E+00  0.10566000000E+00 0.  1.
     999900   -1    0    0    0    0 -0.00000000000E+00 -0.00000000000E+00 -0.74505805969E-08  0.93827000000E+00  0.93827000000E+00 0.  1.
     999902    2    1    2    0    0  0.99422502659E-02  0.15289712813E-01  0.15277897454E-01  0.10201384509E+01  0.10198609813E+01 0.  0.
     999903    2    3    3    0    0 -0.19235201340E-02 -0.89290428603E-01 -0.88216196786E-01  0.12784431215E+00  0.24198971158E-01 0.  0.
         14    1    1    2    0    0 -0.99422502659E-02 -0.15289712813E-01 -0.15277897454E-01  0.23791549106E-01  0.00000000000E+00 0. -1.
     999901    1    3    3    0    0  0.11865770400E-01  0.10458014142E+00  0.10349409424E+00  0.89229413874E+00  0.88000000000E+00 0. -1.
        -11    1    4    4    0    0  0.22552242154E-02 -0.13601348927E-01 -0.27327448126E-01  0.30612632539E-01  0.51100000000E-03 0.  1.
         11    1    4    4    0    0 -0.41787443494E-02 -0.75689079675E-01 -0.60888748660E-01  0.97231679615E-01  0.51100000000E-03 0. -1.
</event>
<event>
 8    1  0.1093753E+005  0.1043930E+01  0.7957747E-01            NaN
         13   -1    0    0    0    0  0.00000000000E+00  0.00000000000E+00  0.74505805969E-08  0.10566000000E+00  0.10566000000E+00 0. -1.
     999900   -1    0    0    0    0 -0.00000000000E+00 -0.00000000000E+00 -0.74505805969E-08  0.93827000000E+00  0.93827000000E+00 0. -1.
     999902    2    1    2    0    0  0.50835052721E-02  0.19408350254E-01 -0.13972009696E-01  0.10194812139E+01  0.10191880113E+01 0.  0.
     999903    2    3    3    0    0 -0.61019387052E-01  0.38656894288E-01 -0.10783438761E+00  0.13181559850E+00  0.23008167792E-01 0.  0.
         14    1    1    2    0    0 -0.50835052721E-02 -0.19408350254E-01  0.13972009696E-01  0.24448786072E-01  0.00000000000E+00 0. -1.
     999901    1    3    3    0    0  0.66102892324E-01 -0.19248544034E-01  0.93862377915E-01  0.88766561543E+00  0.88000000000E+00 0.  1.
        -11    1    4    4    0    0 -0.44566589469E-01  0.17077124812E-01 -0.58424004412E-01  0.75441596625E-01  0.51100000000E-03 0. -1.
         11    1    4    4    0    0 -0.16452797583E-01  0.21579769477E-01 -0.49410383198E-01  0.56374001878E-01  0.51100000000E-03 0.  1.
</event>
<event>
 8    1  0.1093753E+005  0.1043930E+01  0.7957747E-01            NaN
         13   -1    0    0    0    0  0.00000000000E+00  0.00000000000E+00  0.74505805969E-08  0.10566000000E+00  0.10566000000E+00 0. -1.
     999900   -1    0    0    0    0 -0.00000000000E+00 -0.00000000000E+00 -0.74505805969E-08  0.93827000000E+00  0.93827000000E+00 0. -1.
     999902    2    1    2    0    0  0.16301010512E-01  0.15389440501E-01  0.36898215173E-02  0.10212105677E+01  0.10209578105E+01 0.  0.
     999903    2    3    3    0    0  0.11398684653E+00 -0.50620408789E-01 -0.39221723112E-01  0.13231168510E+00  0.20312840345E-01 0.  0.
         14    1    1    2    0    0 -0.16301010512E-01 -0.15389440501E-01 -0.36898215173E-02  0.22719432332E-01  0.00000000000E+00 0. -1.
     999901    1    3    3    0    0 -0.97685836020E-01  0.66009849290E-01  0.42911544630E-01  0.88889888256E+00  0.88000000000E+00 0.  1.
        -11    1    4    4    0    0  0.41070013649E-01 -0.10873947709E-01 -0.61931177117E-02  0.42937216816E-01  0.51100000000E-03 0.  1.
         11    1    4    4    0    0  0.72916832883E-01 -0.39746461079E-01 -0.33028605401E-01  0.89374468288E-01  0.51100000000E-03 0. -1.
</event>
<event>
 8    1  0.1093753E+005  0.1043930E+01  0.7957747E-01            NaN
         13   -1    0    0    0    0  0.00000000000E+00  0.00000000000E+00  0.74505805969E-08  0.10566000000E+00  0.10566000000E+00 0.  1.
     999900   -1    0    0    0    0 -0.00000000000E+00 -0.00000000000E+00 -0.74505805969E-08  0.93827000000E+00  0.93827000000E+00 0.  1.
     999902    2    1    2    0    0 -0.60783148066E-02  0.37482125662E-02  0.22921948393E-01  0.10199214447E+01  0.10196388295E+01 0.  0.
     999903    2    3    3    0    0 -0.10035452976E+00 -0.48038637386E-01 -0.62581631621E-01  0.12925835201E+00  0.20310554414E-01 0.  0.
         14    1    1    2    0    0  0.60783148066E-02 -0.37482125662E-02 -0.22921948393E-01  0.24008555277E-01  0.00000000000E+00 0. -1.
     999901    1    3    3    0    0  0.94276214958E-01  0.51786849952E-01  0.85503580014E-01  0.89066309272E+00  0.88000000000E+00 0. -1.
        -11    1    4    4    0    0 -0.15501946266E-01 -0.92755565664E-02 -0.19227774558E-01  0.26387776017E-01  0.51100000000E-03 0. -1.
         11    1    4    4    0    0 -0.84852583498E-01 -0.38763080819E-01 -0.43353857063E-01  0.10287057599E+00  0.51100000000E-03 0.  1.
</event>
<event>
 8    1  0.1093753E+005  0.1043930E+01  0.7957747E-01            NaN
         13   -1    0    0    0    0  0.00000000000E+00  0.00000000000E+00  0.74505805969E-08  0.10566000000E+00  0.10566000000E+00 0. -1.
     999900   -1    0    0    0    0 -0.00000000000E+00 -0.00000000000E+00 -0.74505805969E-08  0.93827000000E+00  0.93827000000E+00 0. -1.
     999902    2    1    2    0    0 -0.38532578535E-02 -0.22320065830E-01  0.13889154757E-01  0.10173604393E+01  0.10170134325E+01 0.  0.
     999903    2    3    3    0    0 -0.44676382174E-01  0.25662751618E-01 -0.11300749942E+00  0.12602905365E+00  0.21402604807E-01 0.  0.
         14    1    1    2    0    0  0.38532578535E-02  0.22320065830E-01 -0.13889154757E-01  0.26569560678E-01  0.00000000000E+00 0. -1.
     999901    1    3    3    0    0  0.40823124321E-01 -0.47982817449E-01  0.12689665418E+00  0.89133138568E+00  0.88000000000E+00 0.  1.
        -11    1    4    4    0    0 -0.17366677592E-01  0.66931695692E-03 -0.50146458702E-01  0.53075210006E-01  0.51100000000E-03 0. -1.
         11    1    4    4    0    0 -0.27309704582E-01  0.24993434661E-01 -0.62861040719E-01  0.72953843640E-01  0.51100000000E-03 0.  1.
</event>
<event>
 8    1  0.1093753E+005  0.1043930E+01  0.7957747E-01            NaN
         13   -1    0    0    0    0  0.00000000000E+00  0.00000000000E+00  0.74505805969E-08  0.10566000000E+00  0.10566000000E+00 0. -1.
     999900   -1    0    0    0    0 -0.00000000000E+00 -0.00000000000E+00 -0.74505805969E-08  0.93827000000E+00  0.93827000000E+00 0.  1.
     999902    2    1    2    0    0 -0.14784692120E-01  0.44853202493E-02 -0.10293632831E-02  0.10284456593E+01  0.10283290861E+01 0.  0.
     999903    2    3    3    0    0  0.33478353292E-01  0.66882396678E-01 -0.11375470776E+00  0.13775507328E+00  0.21030253277E-01 0.  0.
         14    1    1    2    0    0  0.14784692120E-01 -0.44853202493E-02  0.10293632831E-02  0.15484340722E-01  0.00000000000E+00 0. -1.
     999901    1    3    3    0    0 -0.48263045412E-01 -0.62397076428E-01  0.11272534447E+00  0.89069058600E+00  0.88000000000E+00 0. -1.
        -11    1    4    4    0    0  0.19209991395E-01  0.18679424630E-01 -0.31542530195E-01  0.41390059266E-01  0.51100000000E-03 0.  1.
         11    1    4    4    0    0  0.14268361897E-01  0.48202972047E-01 -0.82212177562E-01  0.96365014014E-01  0.51100000000E-03 0. -1.
</event>
<event>
 8    1  0.1093753E+005  0.1043930E+01  0.7957747E-01            NaN
         13   -1    0    0    0    0  0.00000000000E+00  0.00000000000E+00  0.74505805969E-08  0.10566000000E+00  0.10566000000E+00 0.  1.
     999900   -1    0    0    0    0 -0.00000000000E+00 -0.00000000000E+00 -0.74505805969E-08  0.93827000000E+00  0.93827000000E+00 0. -1.
     999902    2    1    2    0    0  0.49616912253E-02 -0.60786779362E-02 -0.21813530616E-01  0.10207481359E+01  0.10204848642E+01 0.  0.
     999903    2    3    3    0    0 -0.12877902957E-02  0.23778446418E-01  0.12435451593E+00  0.12817007112E+00  0.19911016531E-01 0.  0.
         14    1    1    2    0    0 -0.49616912253E-02  0.60786779362E-02  0.21813530616E-01  0.23181864101E-01  0.00000000000E+00 0.  1.
     999901    1    3    3    0    0  0.62494815210E-02 -0.29857124354E-01 -0.14616804655E+00  0.89257806478E+00  0.88000000000E+00 0. -1.
        -11    1    4    4    0    0 -0.50388617977E-02  0.12807941988E-01  0.10253797680E+00  0.10345883874E+00  0.51100000000E-03 0.  1.
         11    1    4    4    0    0  0.37510715020E-02  0.10970504430E-01  0.21816539136E-01  0.24711232380E-01  0.51100000000E-03 0. -1.
</event>
<event>
 7    1  0.1093753E+005  0.1043930E+01  0.7957747E-01            NaN
         13   -1    0    0    0    0  0.00000000000E+00  0.00000000000E+00  0.74505805969E-08  0.10566000000E+00  0.10566000000E+00 0. -1.
     999900   -1    0    0    0    0 -0.00000000000E+00 -0.00000000000E+00 -0.74505805969E-08  0.93827000000E+00  0.93827000000E+00 0.  1.
     999903    2    1    2    0    0 -0.39909903084E-01 -0.29891919490E-01  0.59006419623E-02  0.54199773299E-01  0.20407612184E-01 0.  0.
         14    1    1    2    0    0  0.42828332147E-01  0.85303580458E-01 -0.48275518445E-01  0.10696491273E+00  0.00000000000E+00 0.  1.
     999901    1    1    2    0    0 -0.29184290630E-02 -0.55411660968E-01  0.42374876483E-01  0.88276531397E+00  0.88000000000E+00 0. -1.
        -11    1    3    3    0    0 -0.16059031330E-01 -0.12664833318E-01  0.12591082662E-01  0.24022634614E-01  0.51100000000E-03 0. -1.
         11    1    3    3    0    0 -0.23850871754E-01 -0.17227086172E-01 -0.66904406992E-02  0.30177138684E-01  0.51100000000E-03 0.  1.
</event>
<event>
 8    1  0.1093753E+005  0.1043930E+01  0.7957747E-01            NaN
         13   -1    0    0    0    0  0.00000000000E+00  0.00000000000E+00  0.74505805969E-08  0.10566000000E+00  0.10566000000E+00 0.  1.
     999900   -1    0    0    0    0 -0.00000000000E+00 -0.00000000000E+00 -0.74505805969E-08  0.93827000000E+00  0.93827000000E+00 0.  1.
     999902    2    1    2    0    0  0.69723042964E-02 -0.29004861268E-01  0.32142367192E-02  0.10139262282E+01  0.10134822001E+01 0.  0.
     999903    2    3    3    0    0 -0.15212512528E-01  0.81687589235E-01 -0.87220039530E-01  0.12211719987E+00  0.20024795527E-01 0.  0.
         14    1    1    2    0    0 -0.69723042964E-02  0.29004861268E-01 -0.32142367192E-02  0.30003771798E-01  0.00000000000E+00 0.  1.
     999901    1    3    3    0    0  0.22184816824E-01 -0.11069245050E+00  0.90434276249E-01  0.89180902833E+00  0.88000000000E+00 0. -1.
        -11    1    4    4    0    0 -0.12890631584E-01  0.66181603903E-01 -0.57948273666E-01  0.88906898606E-01  0.51100000000E-03 0.  1.
         11    1    4    4    0    0 -0.23218809438E-02  0.15505985332E-01 -0.29271765864E-01  0.33210301264E-01  0.51100000000E-03 0. -1.
</event>
<event>
 8    1  0.1093753E+005  0.1043930E+01  0.7957747E-01            NaN
         13   -1    0    0    0    0  0.00000000000E+00  0.00000000000E+00  0.74505805969E-08  0.10566000000E+00  0.10566000000E+00 0. -1.
     999900   -1    0    0    0    0 -0.00000000000E+00 -0.00000000000E+00 -0.74505805969E-08  0.93827000000E+00  0.93827000000E+00 0.  1.
     999902    2    1    2    0    0  0.20803167441E-01  0.28729156244E-02 -0.71546801548E-02  0.10217440840E+01  0.10215031857E+01 0.  0.
     999903    2    3    3    0    0 -0.89256067449E-03 -0.80318945355E-01 -0.10308431914E+00  0.13236560104E+00  0.21032019369E-01 0.  0.
         14    1    1    2    0    0 -0.20803167441E-01 -0.28729156244E-02  0.71546801548E-02  0.22185915980E-01  0.00000000000E+00 0. -1.
     999901    1    3    3    0    0  0.21695728115E-01  0.83191860980E-01  0.95929638984E-01  0.88937848298E+00  0.88000000000E+00 0. -1.
        -11    1    4    4    0    0  0.62030906924E-02 -0.43579333923E-01 -0.68402253202E-01  0.81343506462E-01  0.51100000000E-03 0. -1.
         11    1    4    4    0    0 -0.70956513669E-02 -0.36739611433E-01 -0.34682065937E-01  0.51022094579E-01  0.51100000000E-03 0.  1.
</event>
<event>
 8    1  0.1093753E+005  0.1043930E+01  0.7957747E-01            NaN
         13   -1    0    0    0    0  0.00000000000E+00  0.00000000000E+00  0.74505805969E-08  0.10566000000E+00  0.10566000000E+00 0. -1.
     999900   -1    0    0    0    0 -0.00000000000E+00 -0.00000000000E+00 -0.74505805969E-08  0.93827000000E+00  0.93827000000E+00 0. -1.
     999902    2    1    2    0    0 -0.77440412424E-03 -0.12207741598E-01  0.20897481789E-01  0.10197156778E+01  0.10194281387E+01 0.  0.
     999903    2    3    3    0    0  0.76564971027E-01  0.59696803734E-01  0.85714081435E-01  0.13103528854E+00  0.19935895306E-01 0.  0.
         14    1    1    2    0    0  0.77440412424E-03  0.12207741598E-01 -0.20897481789E-01  0.24214322245E-01  0.00000000000E+00 0.  1.
     999901    1    3    3    0    0 -0.77339375151E-01 -0.71904545332E-01 -0.64816599646E-01  0.88868038922E+00  0.88000000000E+00 0. -1.
        -11    1    4    4    0    0  0.23634534522E-01  0.30724707193E-01  0.34030663431E-01  0.51584358372E-01  0.51100000000E-03 0. -1.
         11    1    4    4    0    0  0.52930436505E-01  0.28972096541E-01  0.51683418004E-01  0.79450930166E-01  0.51100000000E-03 0.  1.
</event>
<event>
 8    1  0.1093753E+005  0.1043930E+01  0.7957747E-01            NaN
         13   -1    0    0    0    0  0.00000000000E+00  0.00000000000E+00  0.74505805969E-08  0.10566000000E+00  0.10566000000E+00 0. -1.
     999900   -1    0    0    0    0 -0.00000000000E+00 -0.00000000000E+00 -0.74505805969E-08  0.93827000000E+00  0.93827000000E+00 0. -1.
     999902    2    1    2    0    0  0.18767940170E-01 -0.10814733058E-01 -0.10448732720E-01  0.10198806748E+01  0.10195970874E+01 0.  0.
     999903    2    3    3    0    0 -0.12305420657E+00  0.18303952640E-01  0.21484200534E-01  0.12747878581E+00  0.17660620701E-01 0.  0.
         14    1    1    2    0    0 -0.18767940170E-01  0.10814733058E-01  0.10448732720E-01  0.24049325246E-01  0.00000000000E+00 0. -1.
     999901    1    3    3    0    0  0.14182214674E+00 -0.29118685698E-01 -0.31932933254E-01  0.89240188894E+00  0.88000000000E+00 0.  1.
        -11    1    4    4    0    0 -0.45266260295E-01  0.80621576857E-02  0.16527018862E-01  0.48861397659E-01  0.51100000000E-03 0. -1.
         11    1    4    4    0    0 -0.77787946271E-01  0.10241794955E-01  0.49571816725E-02  0.78617388153E-01  0.51100000000E-03 0.  1.
</event>
<event>
 8    1  0.1093753E+005  0.1043930E+01  0.7957747E-01            NaN
         13   -1    0    0    0    0  0.00000000000E+00  0.00000000000E+00  0.74505805969E-08  0.10566000000E+00  0.10566000000E+00 0. -1.
     999900   -1    0    0    0    0 -0.00000000000E+00 -0.00000000000E+00 -0.74505805969E-08  0.93827000000E+00  0.93827000000E+00 0. -1.
     999902    2    1    2    0    0 -0.13885906630E-01  0.24004978826E-02 -0.19636636349E-01  0.10197602197E+01  0.10194737502E+01 0.  0.
     999903    2    3    3    0    0  0.80327437851E-01  0.98323481381E-01  0.10914980498E-01  0.12902413401E+00  0.20201140946E-01 0.  0.
         14    1    1    2    0    0  0.13885906630E-01 -0.24004978826E-02  0.19636636349E-01  0.24169780308E-01  0.00000000000E+00 0. -1.
     999901    1    3    3    0    0 -0.94213344481E-01 -0.95922983498E-01 -0.30551616848E-01  0.89073608568E+00  0.88000000000E+00 0.  1.
        -11    1    4    4    0    0  0.48125929464E-01  0.46079359928E-01 -0.31789720197E-03  0.66631634212E-01  0.51100000000E-03 0. -1.
         11    1    4    4    0    0  0.32201508387E-01  0.52244121452E-01  0.11232877700E-01  0.62392499799E-01  0.51100000000E-03 0.  1.
</event>
<event>
 8    1  0.1093753E+005  0.1043930E+01  0.7957747E-01            NaN
         13   -1    0    0    0    0  0.00000000000E+00  0.00000000000E+00  0.74505805969E-08  0.10566000000E+00  0.10566000000E+00 0.  1.
     999900   -1    0    0    0    0 -0.00000000000E+00 -0.00000000000E+00 -0.74505805969E-08  0.93827000000E+00  0.93827000000E+00 0.  1.
     999902    2    1    2    0    0  0.17432836925E-01 -0.11676113011E-01  0.10009723814E-01  0.10206828499E+01  0.10204180761E+01 0.  0.
     999903    2    3    3    0    0 -0.57893312191E-01 -0.11596973831E+00  0.89045587316E-03  0.13128173110E+00  0.20820283616E-01 0.  0.
         14    1    1    2    0    0 -0.17432836925E-01  0.11676113011E-01 -0.10009723814E-01  0.23247150129E-01  0.00000000000E+00 0.  1.
     999901    1    3    3    0    0  0.75326149116E-01  0.10429362530E+00  0.91192679412E-02  0.88940111877E+00  0.88000000000E+00 0.  1.
        -11    1    4    4    0    0 -0.28486149560E-01 -0.35336584140E-01  0.21540910845E-02  0.45442668549E-01  0.51100000000E-03 0. -1.
         11    1    4    4    0    0 -0.29407162631E-01 -0.80633154168E-01 -0.12636352114E-02  0.85839062553E-01  0.51100000000E-03 0.  1.
</event>
<event>
 7    1  0.1093753E+005  0.1043930E+01  0.7957747E-01            NaN
         13   -1    0    0    0    0  0.00000000000E+00  0.00000000000E+00  0.74505805969E-08  0.10566000000E+00  0.10566000000E+00 0. -1.
     999900   -1    0    0    0    0 -0.00000000000E+00 -0.00000000000E+00 -0.74505805969E-08  0.93827000000E+00  0.93827000000E+00 0. -1.
     999903    2    1    2    0    0 -0.10475779180E+00  0.43658687517E-01 -0.24952677596E-01  0.11793290476E+00  0.20131020009E-01 0.  0.
         14    1    1    2    0    0 -0.36489906641E-03 -0.39310022767E-01  0.35461036032E-02  0.39471330001E-01  0.00000000000E+00 0. -1.
     999901    1    1    2    0    0  0.10512269087E+00 -0.43486647494E-02  0.21406573993E-01  0.88652576524E+00  0.88000000000E+00 0. -1.
        -11    1    3    3    0    0 -0.52603070840E-01  0.22317578668E-01 -0.22820909014E-02  0.57189390968E-01  0.51100000000E-03 0.  1.
         11    1    3    3    0    0 -0.52154720965E-01  0.21341108849E-01 -0.22670586695E-01  0.60743513793E-01  0.51100000000E-03 0. -1.
</event>
<event>
 8    1  0.1093753E+005  0.1043930E+01  0.7957747E-01            NaN
         13   -1    0    0    0    0  0.00000000000E+00  0.00000000000E+00  0.74505805969E-08  0.10566000000E+00  0.10566000000E+00 0.  1.
     999900   -1    0    0    0    0 -0.00000000000E+00 -0.00000000000E+00 -0.74505805969E-08  0.93827000000E+00  0.93827000000E+00 0.  1.
     999902    2    1    2    0    0  0.60617404860E-02  0.36882090852E-02 -0.23143720065E-01  0.10197229894E+01  0.10194356261E+01 0.  0.
     999903    2    3    3    0    0 -0.12665675339E+00 -0.17603508201E-01 -0.60293797588E-02  0.12935203497E+00  0.18541274207E-01 0.  0.
         14    1    1    2    0    0 -0.60617404860E-02 -0.36882090852E-02  0.23143720065E-01  0.24207010605E-01  0.00000000000E+00 0.  1.
     999901    1    3    3    0    0  0.13271849388E+00  0.21291717286E-01 -0.17114340306E-01  0.89037095443E+00  0.88000000000E+00 0. -1.
        -11    1    4    4    0    0 -0.88836839755E-01 -0.41610114458E-02 -0.14187818147E-02  0.88947018931E-01  0.51100000000E-03 0.  1.
         11    1    4    4    0    0 -0.37819913638E-01 -0.13442496755E-01 -0.46105979441E-02  0.40405016038E-01  0.51100000000E-03 0. -1.
</event>
<event>
 8    1  0.1093753E+005  0.1043930E+01  0.7957747E-01            NaN
         13   -1    0    0    0    0  0.00000000000E+00  0.00000000000E+00  0.74505805969E-08  0.10566000000E+00  0.10566000000E+00 0.  1.
     999900   -1    0    0    0    0 -0.00000000000E+00 -0.00000000000E+00 -0.74505805969E-08  0.93827000000E+00  0.93827000000E+00 0.  1.
     999902    2    1    2    0    0  0.67005440384E-02  0.25234719631E-01 -0.20878799052E-01  0.10104992864E+01  0.10099461348E+01 0.  0.
     999903    2    3    3    0    0 -0.33177710359E-01 -0.11205094036E+00 -0.87965135367E-02  0.11888075287E+00  0.19977013111E-01 0.  0.
         14    1    1    2    0    0 -0.67005440384E-02 -0.25234719631E-01  0.20878799052E-01  0.33430713650E-01  0.00000000000E+00 0.  1.
     999901    1    3    3    0    0  0.39878254397E-01  0.13728565999E+00 -0.12082285516E-01  0.89161853348E+00  0.88000000000E+00 0. -1.
        -11    1    4    4    0    0 -0.21505360267E-01 -0.43121338939E-01 -0.86985931837E-02  0.48967918442E-01  0.51100000000E-03 0.  1.
         11    1    4    4    0    0 -0.11672350091E-01 -0.68929601424E-01 -0.97920353025E-04  0.69912834433E-01  0.51100000000E-03 0. -1.
</event>
<event>
 8    1  0.1093753E+005  0.1043930E+01  0.7957747E-01            NaN
         13   -1    0    0    0    0  0.00000000000E+00  0.00000000000E+00  0.74505805969E-08  0.10566000000E+00  0.10566000000E+00 0. -1.
     999900   -1    0    0    0    0 -0.00000000000E+00 -0.00000000000E+00 -0.74505805969E-08  0.93827000000E+00  0.93827000000E+00 0.  1.
     999902    2    1    2    0    0 -0.12999416324E-02 -0.27596657695E-01 -0.68800289534E-03  0.10162941770E+01  0.10159183607E+01 0.  0.
     999903    2    3    3    0    0  0.47624914548E-01  0.74411620896E-01  0.85625379243E-01  0.12486311945E+00  0.21304253519E-01 0.  0.
         14    1    1    2    0    0  0.12999416324E-02  0.27596657695E-01  0.68800289534E-03  0.27635822987E-01  0.00000000000E+00 0. -1.
     999901    1    3    3    0    0 -0.48924856180E-01 -0.10200827859E+00 -0.86313382139E-01  0.89143105756E+00  0.88000000000E+00 0.  1.
        -11    1    4    4    0    0  0.17148454858E-01  0.42997869889E-01  0.35654468975E-01  0.58432769898E-01  0.51100000000E-03 0. -1.
         11    1    4    4    0    0  0.30476459689E-01  0.31413751007E-01  0.49970910268E-01  0.66430349551E-01  0.51100000000E-03 0.  1.
</event>
<event>
 8    1  0.1093753E+005  0.1043930E+01  0.7957747E-01            NaN
         13   -1    0    0    0    0  0.00000000000E+00  0.00000000000E+00  0.74505805969E-08  0.10566000000E+00  0.10566000000E+00 0.  1.
     999900   -1    0    0    0    0 -0.00000000000E+00 -0.00000000000E+00 -0.74505805969E-08  0.93827000000E+00  0.93827000000E+00 0.  1.
     999902    2    1    2    0    0 -0.14900399342E-01  0.15634045178E-01 -0.10667233029E-01  0.10198419297E+01  0.10195574170E+01 0.  0.
     999903    2    3    3    0    0 -0.17686689446E-02  0.36107485166E-01 -0.12541588228E+00  0.13205881624E+00  0.20087527030E-01 0.  0.
         14    1    1    2    0    0  0.14900399342E-01 -0.15634045178E-01  0.10667233029E-01  0.24088070277E-01  0.00000000000E+00 0.  1.
     999901    1    3    3    0    0 -0.13131730398E-01 -0.20473439988E-01  0.11474864925E+00  0.88778311349E+00  0.88000000000E+00 0. -1.
        -11    1    4    4    0    0 -0.90904340961E-02  0.77554654367E-02 -0.40878022181E-01  0.42591748669E-01  0.51100000000E-03 0.  1.
         11    1    4    4    0    0  0.73217651515E-02  0.28352019730E-01 -0.84537860100E-01  0.89467067567E-01  0.51100000000E-03 0. -1.
</event>
<event>
 8    1  0.1093753E+005  0.1043930E+01  0.7957747E-01            NaN
         13   -1    0    0    0    0  0.00000000000E+00  0.00000000000E+00  0.74505805969E-08  0.10566000000E+00  0.10566000000E+00 0. -1.
     999900   -1    0    0    0    0 -0.00000000000E+00 -0.00000000000E+00 -0.74505805969E-08  0.93827000000E+00  0.93827000000E+00 0. -1.
     999902    2    1    2    0    0 -0.21119771573E-01  0.99847672330E-02 -0.47682363927E-02  0.10200872567E+01  0.10198085776E+01 0.  0.
     999903    2    3    3    0    0 -0.83004784995E-02 -0.12723628680E+00  0.78036581268E-02  0.12927189738E+00  0.19807971885E-01 0.  0.
         14    1    1    2    0    0  0.21119771573E-01 -0.99847672330E-02  0.47682363927E-02  0.23842743262E-01  0.00000000000E+00 0.  1.
     999901    1    3    3    0    0 -0.12819293073E-01  0.13722105403E+00 -0.12571894519E-01  0.89081535936E+00  0.88000000000E+00 0.  1.
        -11    1    4    4    0    0 -0.13538626302E-02 -0.49009742866E-01  0.12487517783E-01  0.50596314699E-01  0.51100000000E-03 0.  1.
         11    1    4    4    0    0 -0.69466158693E-02 -0.78226543930E-01 -0.46838596557E-02  0.78675582676E-01  0.51100000000E-03 0. -1.
</event>
<event>
 7    1  0.1093753E+005  0.1043930E+01  0.7957747E-01            NaN
         13   -1    0    0    0    0  0.00000000000E+00  0.00000000000E+00  0.74505805969E-08  0.10566000000E+00  0.10566000000E+00 0. -1.
     999900   -1    0    0    0    0 -0.00000000000E+00 -0.00000000000E+00 -0.74505805969E-08  0.93827000000E+00  0.93827000000E+00 0. -1.
     999902    2    1    2    0    0  0.12929171978E-01  0.72495791369E-02  0.13447019851E-01  0.10239164489E+01  0.10237208370E+01 0.  0.
         14    1    1    2    0    0 -0.12929171978E-01 -0.72495791369E-02 -0.13447019851E-01  0.20013551123E-01  0.00000000000E+00 0. -1.
     999901    1    3    3    0    0 -0.19176050656E-01 -0.11072205768E+00 -0.34842644361E-01  0.88782943454E+00  0.88000000000E+00 0. -1.
        -11    1    3    3    0    0  0.29083462115E-01  0.10818971356E+00  0.31432419270E-01  0.11635772425E+00  0.51100000000E-03 0.  1.
         11    1    3    3    0    0  0.30217605193E-02  0.97819232576E-02  0.16857244942E-01  0.19729290086E-01  0.51100000000E-03 0. -1.
</event>
<event>
 8    1  0.1093753E+005  0.1043930E+01  0.7957747E-01            NaN
         13   -1    0    0    0    0  0.00000000000E+00  0.00000000000E+00  0.74505805969E-08  0.10566000000E+00  0.10566000000E+00 0. -1.
     999900   -1    0    0    0    0 -0.00000000000E+00 -0.00000000000E+00 -0.74505805969E-08  0.93827000000E+00  0.93827000000E+00 0.  1.
     999902    2    1    2    0    0  0.11505847252E-01 -0.16864526966E-01 -0.53700710565E-02  0.10228199442E+01  0.10226020750E+01 0.  0.
     999903    2    3    3    0    0  0.10398073402E+00 -0.75068832479E-01 -0.36675146440E-01  0.13550976533E+00  0.23885298343E-01 0.  0.
         14    1    1    2    0    0 -0.11505847252E-01  0.16864526966E-01  0.53700710565E-02  0.21110055753E-01  0.00000000000E+00 0. -1.
     999901    1    3    3    0    0 -0.92474886765E-01  0.58204305514E-01  0.31305075384E-01  0.88731017892E+00  0.88000000000E+00 0. -1.
        -11    1    4    4    0    0  0.30332939612E-01 -0.27767235724E-01 -0.14356559561E-02  0.41151292013E-01  0.51100000000E-03 0. -1.
         11    1    4    4    0    0  0.73647794405E-01 -0.47301596755E-01 -0.35239490484E-01  0.94358473318E-01  0.51100000000E-03 0.  1.
</event>
<event>
 8    1  0.1093753E+005  0.1043930E+01  0.7957747E-01            NaN
         13   -1    0    0    0    0  0.00000000000E+00  0.00000000000E+00  0.74505805969E-08  0.10566000000E+00  0.10566000000E+00 0.  1.
     999900   -1    0    0    0    0 -0.00000000000E+00 -0.00000000000E+00 -0.74505805969E-08  0.93827000000E+00  0.93827000000E+00 0.  1.
     999902    2    1    2    0    0 -0.27107580708E-01  0.84494969402E-03  0.99194666511E-02  0.10150521419E+01  0.10146412765E+01 0.  0.
     999903    2    3    3    0    0  0.56137751545E-01  0.10578290449E+00  0.28559014140E-01  0.12472119641E+00  0.19957192065E-01 0.  0.
         14    1    1    2    0    0  0.27107580708E-01 -0.84494969402E-03 -0.99194666511E-02  0.28877858135E-01  0.00000000000E+00 0. -1.
     999901    1    3    3    0    0 -0.83245332253E-01 -0.10493795480E+00 -0.18639547488E-01  0.89033094545E+00  0.88000000000E+00 0. -1.
        -11    1    4    4    0    0  0.26676281675E-01  0.65914173193E-01  0.10113316147E-01  0.71825082779E-01  0.51100000000E-03 0.  1.
         11    1    4    4    0    0  0.29461469870E-01  0.39868731297E-01  0.18445697992E-01  0.52896113634E-01  0.51100000000E-03 0. -1.
</event>
<event>
 8    1  0.1093753E+005  0.1043930E+01  0.7957747E-01            NaN
         13   -1    0    0    0    0  0.00000000000E+00  0.00000000000E+00  0.74505805969E-08  0.10566000000E+00  0.10566000000E+00 0.  1.
     999900   -1    0    0    0    0 -0.00000000000E+00 -0.00000000000E+00 -0.74505805969E-08  0.93827000000E+00  0.93827000000E+00 0.  1.
     999902    2    1    2    0    0 -0.72061089829E-02  0.23199404445E-01 -0.49839080332E-02  0.10191312155E+01  0.10188294532E+01 0.  0.
     999903    2    3    3    0    0 -0.10583942283E+00  0.56564722348E-01  0.49494562579E-01  0.13131947938E+00  0.19837910663E-01 0.  0.
         14    1    1    2    0    0  0.72061089829E-02 -0.23199404445E-01  0.49839080332E-02  0.24798784498E-01  0.00000000000E+00 0.  1.
     999901    1    3    3    0    0  0.98633313850E-01 -0.33365317903E-01 -0.54478470612E-01  0.88781173612E+00  0.88000000000E+00 0.  1.
        -11    1    4    4    0    0 -0.96623514874E-02  0.28499996253E-03  0.80951201806E-03  0.97138402268E-02  0.51100000000E-03 0.  1.
         11    1    4    4    0    0 -0.96177071345E-01  0.56279722385E-01  0.48685050561E-01  0.12160563915E+00  0.51100000000E-03 0. -1.
</event>
<event>
 8    1  0.1093753E+005  0.1043930E+01  0.7957747E-01            NaN
         13   -1    0    0    0    0  0.00000000000E+00  0.00000000000E+00  0.74505805969E-08  0.10566000000E+00  0.10566000000E+00 0. -1.
     999900   -1    0    0    0    0 -0.00000000000E+00 -0.00000000000E+00 -0.74505805969E-08  0.93827000000E+00  0.93827000000E+00 0. -1.
     999902    2    1    2    0    0  0.14854416709E-01  0.15282449715E-01  0.11151978871E-01  0.10198764431E+01  0.10195927548E+01 0.  0.
     999903    2    3    3    0    0  0.69962213999E-01 -0.82308473428E-01 -0.67728896713E-01  0.12926819585E+00  0.21299455920E-01 0.  0.
         14    1    1    2    0    0 -0.14854416709E-01 -0.15282449715E-01 -0.11151978871E-01  0.24053556864E-01  0.00000000000E+00 0. -1.
     999901    1    3    3    0    0 -0.55107797290E-01  0.97590923143E-01  0.78880875584E-01  0.89060824729E+00  0.88000000000E+00 0. -1.
        -11    1    4    4    0    0  0.40127588713E-01 -0.31040971934E-01 -0.33188407065E-01  0.60625875656E-01  0.51100000000E-03 0. -1.
         11    1    4    4    0    0  0.29834625286E-01 -0.51267501495E-01 -0.34540489648E-01  0.68642320194E-01  0.51100000000E-03 0.  1.
</event>
<event>
 8    1  0.1093753E+005  0.1043930E+01  0.7957747E-01            NaN
         13   -1    0    0    0    0  0.00000000000E+00  0.00000000000E+00  0.74505805969E-08  0.10566000000E+00  0.10566000000E+00 0.  1.
     999900   -1    0    0    0    0 -0.00000000000E+00 -0.00000000000E+00 -0.74505805969E-08  0.93827000000E+00  0.93827000000E+00 0. -1.
     999902    2    1    2    0    0  0.85084446557E-02  0.72576554679E-02 -0.20842222024E-01  0.10202769788E+01  0.10200027686E+01 0.  0.
     999903    2    3    3    0    0  0.12651183369E+00  0.45595857406E-02  0.27731470721E-01  0.13106863255E+00  0.19593827736E-01 0.  0.
         14    1    1    2    0    0 -0.85084446557E-02 -0.72576554679E-02  0.20842222024E-01  0.23653021207E-01  0.00000000000E+00 0.  1.
     999901    1    3    3    0    0 -0.11800338903E+00  0.26980697273E-02 -0.48573692745E-01  0.88920834624E+00  0.88000000000E+00 0. -1.
        -11    1    4    4    0    0  0.24578249484E-01  0.86751185583E-02  0.64291698586E-02  0.26850388745E-01  0.51100000000E-03 0.  1.
         11    1    4    4    0    0  0.10193358420E+00 -0.41155328177E-02  0.21302300862E-01  0.10421824380E+00  0.51100000000E-03 0. -1.
</event>
<event>
 8    1  0.1093753E+005  0.1043930E+01  0.7957747E-01            NaN
         13   -1    0    0    0    0  0.00000000000E+00  0.00000000000E+00  0.74505805969E-08  0.10566000000E+00  0.10566000000E+00 0. -1.
     999900   -1    0    0    0    0 -0.00000000000E+00 -0.00000000000E+00 -0.74505805969E-08  0.93827000000E+00  0.93827000000E+00 0. -1.
     999902    2    1    2    0    0  0.75763661450E-02 -0.17981610074E-01 -0.16827668994E-01  0.10181635476E+01  0.10178374623E+01 0.  0.
     999903    2    3    3    0    0 -0.10663713983E+00 -0.92149552026E-02  0.65450186635E-01  0.12693337268E+00  0.19286243234E-01 0.  0.
         14    1    1    2    0    0 -0.75763661450E-02  0.17981610074E-01  0.16827668994E-01  0.25766452387E-01  0.00000000000E+00 0.  1.
     999901    1    3    3    0    0  0.11421350598E+00 -0.87666548712E-02 -0.82277855629E-01  0.89123017493E+00  0.88000000000E+00 0. -1.
        -11    1    4    4    0    0 -0.46061345871E-01  0.44845562184E-02  0.33144501155E-01  0.56926074041E-01  0.51100000000E-03 0. -1.
         11    1    4    4    0    0 -0.60575793962E-01 -0.13699511421E-01  0.32305685480E-01  0.70007298639E-01  0.51100000000E-03 0.  1.
</event>
<event>
 8    1  0.1093753E+005  0.1043930E+01  0.7957747E-01            NaN
         13   -1    0    0    0    0  0.00000000000E+00  0.00000000000E+00  0.74505805969E-08  0.10566000000E+00  0.10566000000E+00 0. -1.
     999900   -1    0    0    0    0 -0.00000000000E+00 -0.00000000000E+00 -0.74505805969E-08  0.93827000000E+00  0.93827000000E+00 0. -1.
     999902    2    1    2    0    0 -0.13229794020E-02 -0.23652043518E-01 -0.89328465130E-03  0.10202241485E+01  0.10199486976E+01 0.  0.
     999903    2    3    3    0    0  0.12068568976E+00  0.24875538789E-01  0.35145632839E-01  0.12975245039E+00  0.20412122149E-01 0.  0.
         14    1    1    2    0    0  0.13229794020E-02  0.23652043518E-01  0.89328465130E-03  0.23705851483E-01  0.00000000000E+00 0. -1.
     999901    1    3    3    0    0 -0.12200866916E+00 -0.48527582307E-01 -0.36038917490E-01  0.89047169813E+00  0.88000000000E+00 0. -1.
        -11    1    4    4    0    0  0.73509613911E-01  0.23286735750E-01  0.27848492386E-01  0.81986188156E-01  0.51100000000E-03 0. -1.
         11    1    4    4    0    0  0.47176075851E-01  0.15888030397E-02  0.72971404530E-02  0.47766262231E-01  0.51100000000E-03 0.  1.
</event>
<event>
 8    1  0.1093753E+005  0.1043930E+01  0.7957747E-01            NaN
         13   -1    0    0    0    0  0.00000000000E+00  0.00000000000E+00  0.74505805969E-08  0.10566000000E+00  0.10566000000E+00 0.  1.
     999900   -1    0    0    0    0 -0.00000000000E+00 -0.00000000000E+00 -0.74505805969E-08  0.93827000000E+00  0.93827000000E+00 0. -1.
     999902    2    1    2    0    0  0.14248666727E-01 -0.18523083178E-01  0.16232827162E-02  0.10205042842E+01  0.10202353797E+01 0.  0.
     999903    2    3    3    0    0  0.12950306089E+00 -0.99810596357E-02  0.18743144613E-01  0.13278268865E+00  0.20230486981E-01 0.  0.
         14    1    1    2    0    0 -0.14248666727E-01  0.18523083178E-01 -0.16232827162E-02  0.23425715799E-01  0.00000000000E+00 0.  1.
     999901    1    3    3    0    0 -0.11525439416E+00 -0.85420235420E-02 -0.17119861897E-01  0.88772159555E+00  0.88000000000E+00 0. -1.
        -11    1    4    4    0    0  0.33528644412E-01  0.39410664954E-02  0.10928960772E-01  0.35488100904E-01  0.51100000000E-03 0. -1.
         11    1    4    4    0    0  0.95974416477E-01 -0.13922126131E-01  0.78141838414E-02  0.97294587744E-01  0.51100000000E-03 0.  1.
</event>
<event>
 8    1  0.1093753E+005  0.1043930E+01  0.7957747E-01            NaN
         13   -1    0    0    0    0  0.00000000000E+00  0.00000000000E+00  0.74505805969E-08  0.10566000000E+00  0.10566000000E+00 0.  1.
     999900   -1    0    0    0    0 -0.00000000000E+00 -0.00000000000E+00 -0.74505805969E-08  0.93827000000E+00  0.93827000000E+00 0.  1.
     999902    2    1    2    0    0  0.41962321430E-02  0.11562701911E-01  0.25829455546E-01  0.10153211690E+01  0.10149180316E+01 0.  0.
     999903    2    3    3    0    0  0.10735674185E+00 -0.17559817300E-01  0.64462783427E-01  0.12797526915E+00  0.19707913675E-01 0.  0.
         14    1    1    2    0    0 -0.41962321430E-02 -0.11562701911E-01 -0.25829455546E-01  0.28608831040E-01  0.00000000000E+00 0. -1.
     999901    1    3    3    0    0 -0.10316050971E+00  0.29122519211E-01 -0.38633327881E-01  0.88734589981E+00  0.88000000000E+00 0.  1.
        -11    1    4    4    0    0  0.56804781577E-01 -0.24880630279E-02  0.41736234003E-01  0.70534729158E-01  0.51100000000E-03 0. -1.
         11    1    4    4    0    0  0.50551960277E-01 -0.15071754272E-01  0.22726549424E-01  0.57440539990E-01  0.51100000000E-03 0.  1.
</event>
<event>
 8    1  0.1093753E+005  0.1043930E+01  0.7957747E-01            NaN
         13   -1    0    0    0    0  0.00000000000E+00  0.00000000000E+00  0.74505805969E-08  0.10566000000E+00  0.10566000000E+00 0.  1.
     999900   -1    0    0    0    0 -0.00000000000E+00 -0.00000000000E+00 -0.74505805969E-08  0.93827000000E+00  0.93827000000E+00 0. -1.
     999902    2    1    2    0    0 -0.18359134211E-01  0.51431667145E-02  0.14115452908E-01  0.10202075216E+01  0.10199316796E+01 0.  0.
     999903    2    3    3    0    0 -0.11060687957E+00 -0.50531143838E-01  0.49584440990E-01  0.13292666157E+00  0.20581600103E-01 0.  0.
         14    1    1    2    0    0  0.18359134211E-01 -0.51431667145E-02 -0.14115452908E-01  0.23722478446E-01  0.00000000000E+00 0. -1.
     999901    1    3    3    0    0  0.92247745355E-01  0.55674310553E-01 -0.35468988081E-01  0.88728085998E+00  0.88000000000E+00 0. -1.
        -11    1    4    4    0    0 -0.59730839995E-01 -0.18652667972E-01  0.32440201712E-01  0.70486332556E-01  0.51100000000E-03 0. -1.
         11    1    4    4    0    0 -0.50876039571E-01 -0.31878475866E-01  0.17144239277E-01  0.62440329014E-01  0.51100000000E-03 0.  1.
</event>
<event>
 8    1  0.1093753E+005  0.1043930E+01  0.7957747E-01            NaN
         13   -1    0    0    0    0  0.00000000000E+00  0.00000000000E+00  0.74505805969E-08  0.10566000000E+00  0.10566000000E+00 0. -1.
     999900   -1    0    0    0    0 -0.00000000000E+00 -0.00000000000E+00 -0.74505805969E-08  0.93827000000E+00  0.93827000000E+00 0.  1.
     999902    2    1    2    0    0  0.19190333073E-01  0.44369788418E-02 -0.14029243016E-01  0.10197478718E+01  0.10194611060E+01 0.  0.
     999903    2    3    3    0    0 -0.27006139034E-02  0.11055354527E+00  0.65084871876E-01  0.12957992000E+00  0.18042600509E-01 0.  0.
         14    1    1    2    0    0 -0.19190333073E-01 -0.44369788418E-02  0.14029243016E-01  0.24182128200E-01  0.00000000000E+00 0. -1.
     999901    1    3    3    0    0  0.21890946976E-01 -0.10611656643E+00 -0.79114114892E-01  0.89016795180E+00  0.88000000000E+00 0.  1.
        -11    1    4    4    0    0 -0.81772360912E-02  0.46533230627E-01  0.33927015089E-01  0.58167965553E-01  0.51100000000E-03 0.  1.
         11    1    4    4    0    0  0.54766221879E-02  0.64020314645E-01  0.31157856788E-01  0.71411954451E-01  0.51100000000E-03 0. -1.
</event>
<event>
 8    1  0.1093753E+005  0.1043930E+01  0.7957747E-01            NaN
         13   -1    0    0    0    0  0.00000000000E+00  0.00000000000E+00  0.74505805969E-08  0.10566000000E+00  0.10566000000E+00 0.  1.
     999900   -1    0    0    0    0 -0.00000000000E+00 -0.00000000000E+00 -0.74505805969E-08  0.93827000000E+00  0.93827000000E+00 0.  1.
     999902    2    1    2    0    0  0.64014380691E-03 -0.18486833445E-01  0.13901778959E-01  0.10207905909E+01  0.10205282937E+01 0.  0.
     999903    2    3    3    0    0  0.84763519723E-01 -0.27088798514E-01  0.96666565234E-01  0.13287125559E+00  0.19791120432E-01 0.  0.
         14    1    1    2    0    0 -0.64014380691E-03  0.18486833445E-01 -0.13901778959E-01  0.23139409092E-01  0.00000000000E+00 0.  1.
     999901    1    3    3    0    0 -0.84123375916E-01  0.86019650697E-02 -0.82764786276E-01  0.88791933531E+00  0.88000000000E+00 0.  1.
        -11    1    4    4    0    0  0.37163425996E-01 -0.16885466689E-02  0.39607851641E-01  0.54341645671E-01  0.51100000000E-03 0.  1.
         11    1    4    4    0    0  0.47600093727E-01 -0.25400251845E-01  0.57058713594E-01  0.78529609923E-01  0.51100000000E-03 0. -1.
</event>
<event>
 8    1  0.1093753E+005  0.1043930E+01  0.7957747E-01            NaN
         13   -1    0    0    0    0  0.00000000000E+00  0.00000000000E+00  0.74505805969E-08  0.10566000000E+00  0.10566000000E+00 0. -1.
     999900   -1    0    0    0    0 -0.00000000000E+00 -0.00000000000E+00 -0.74505805969E-08  0.93827000000E+00  0.93827000000E+00 0. -1.
     999902    2    1    2    0    0 -0.14903648090E-01  0.42854687440E-02 -0.18690991034E-01  0.10196434376E+01  0.10193541596E+01 0.  0.
     999903    2    3    3    0    0 -0.24599102257E-01  0.55653388885E-02 -0.12868114231E+00  0.13274238713E+00  0.20630465923E-01 0.  0.
         14    1    1    2    0    0  0.14903648090E-01 -0.42854687440E-02  0.18690991034E-01  0.24286562428E-01  0.00000000000E+00 0. -1.
     999901    1    3    3    0    0  0.96954541668E-02 -0.12798701444E-02  0.10999015128E+00  0.88690105044E+00  0.88000000000E+00 0.  1.
        -11    1    4    4    0    0  0.26579707547E-03  0.25431198146E-02 -0.52145158318E-01  0.52210312808E-01  0.51100000000E-03 0. -1.
         11    1    4    4    0    0 -0.24864899333E-01  0.30222190739E-02 -0.76535983996E-01  0.80532074320E-01  0.51100000000E-03 0.  1.
</event>
<event>
 8    1  0.1093753E+005  0.1043930E+01  0.7957747E-01            NaN
         13   -1    0    0    0    0  0.00000000000E+00  0.00000000000E+00  0.74505805969E-08  0.10566000000E+00  0.10566000000E+00 0.  1.
     999900   -1    0    0    0    0 -0.00000000000E+00 -0.00000000000E+00 -0.74505805969E-08  0.93827000000E+00  0.93827000000E+00 0.  1.
     999902    2    1    2    0    0  0.19452480727E-01  0.76274202443E-02 -0.43527733226E-02  0.10225870109E+01  0.10223642559E+01 0.  0.
     999903    2    3    3    0    0 -0.18359742496E-01 -0.99244631481E-01  0.81090122542E-01  0.13121061003E+00  0.21308195320E-01 0.  0.
         14    1    1    2    0    0 -0.19452480727E-01 -0.76274202443E-02  0.43527733226E-02  0.21342989051E-01  0.00000000000E+00 0. -1.
     999901    1    3    3    0    0  0.37812223223E-01  0.10687205173E+00 -0.85442895864E-01  0.89137640092E+00  0.88000000000E+00 0.  1.
        -11    1    4    4    0    0 -0.11256288416E-01 -0.63048810899E-01  0.37942723280E-01  0.74443051762E-01  0.51100000000E-03 0. -1.
         11    1    4    4    0    0 -0.71034540804E-02 -0.36195820581E-01  0.43147399262E-01  0.56767558266E-01  0.51100000000E-03 0.  1.
</event>
<event>
 8    1  0.1093753E+005  0.1043930E+01  0.7957747E-01            NaN
         13   -1    0    0    0    0  0.00000000000E+00  0.00000000000E+00  0.74505805969E-08  0.10566000000E+00  0.10566000000E+00 0.  1.
     999900   -1    0    0    0    0 -0.00000000000E+00 -0.00000000000E+00 -0.74505805969E-08  0.93827000000E+00  0.93827000000E+00 0. -1.
     999902    2    1    2    0    0 -0.95392329490E-02  0.17889022471E-01 -0.11821332139E-01  0.10204617665E+01  0.10201918736E+01 0.  0.
     999903    2    3    3    0    0  0.36291425849E-01  0.91499395315E-01  0.84084577013E-01  0.13101425276E+00  0.20132347168E-01 0.  0.
         14    1    1    2    0    0  0.95392329490E-02 -0.17889022471E-01  0.11821332139E-01  0.23468233503E-01  0.00000000000E+00 0.  1.
     999901    1    3    3    0    0 -0.45830658798E-01 -0.73610372844E-01 -0.95905909152E-01  0.88944751373E+00  0.88000000000E+00 0. -1.
        -11    1    4    4    0    0  0.22266219877E-01  0.69140813854E-01  0.51326424314E-01  0.88943238315E-01  0.51100000000E-03 0.  1.
         11    1    4    4    0    0  0.14025205971E-01  0.22358581461E-01  0.32758152699E-01  0.42071014449E-01  0.51100000000E-03 0. -1.
</event>
<event>
 8    1  0.1093753E+005  0.1043930E+01  0.7957747E-01            NaN
         13   -1    0    0    0    0  0.00000000000E+00  0.00000000000E+00  0.74505805969E-08  0.10566000000E+00  0.10566000000E+00 0.  1.
     999900   -1    0    0    0    0 -0.00000000000E+00 -0.00000000000E+00 -0.74505805969E-08  0.93827000000E+00  0.93827000000E+00 0. -1.
     999902    2    1    2    0    0  0.80826445776E-02 -0.14928839473E-01 -0.18315209519E-01  0.10189570889E+01  0.10186510210E+01 0.  0.
     999903    2    3    3    0    0  0.12331021250E+00  0.12759298107E-01 -0.36879799737E-01  0.13081933525E+00  0.19630859622E-01 0.  0.
         14    1    1    2    0    0 -0.80826445776E-02  0.14928839473E-01  0.18315209519E-01  0.24972911146E-01  0.00000000000E+00 0.  1.
     999901    1    3    3    0    0 -0.11522756793E+00 -0.27688137579E-01  0.18564590218E-01  0.88813775361E+00  0.88000000000E+00 0. -1.
        -11    1    4    4    0    0  0.10902088581E+00  0.67237662644E-02 -0.27329752643E-01  0.11259635463E+00  0.51100000000E-03 0.  1.
         11    1    4    4    0    0  0.14289326693E-01  0.60355318421E-02 -0.95500470939E-02  0.18222980614E-01  0.51100000000E-03 0. -1.
</event>
<event>
 7    1  0.1093753E+005  0.1043930E+01  0.7957747E-01            NaN
         13   -1    0    0    0    0  0.00000000000E+00  0.00000000000E+00  0.74505805969E-08  0.10566000000E+00  0.10566000000E+00 0. -1.
     999900   -1    0    0    0    0 -0.00000000000E+00 -0.00000000000E+00 -0.74505805969E-08  0.93827000000E+00  0.93827000000E+00 0.  1.
     999903    2    1    2    0    0 -0.10565668048E+00 -0.17024492339E-02  0.42455353372E-01  0.11559279392E+00  0.19824341468E-01 0.  0.
         14    1    1    2    0    0  0.15138969935E-01 -0.33787413592E-01  0.17506499145E-01  0.40954306736E-01  0.00000000000E+00 0. -1.
     999901    1    1    2    0    0  0.90517710540E-01  0.35489862826E-01 -0.59961852517E-01  0.88738289934E+00  0.88000000000E+00 0.  1.
        -11    1    3    3    0    0 -0.43332888190E-01 -0.31991346213E-02  0.74319577596E-02  0.44084790783E-01  0.51100000000E-03 0.  1.
         11    1    3    3    0    0 -0.62323792285E-01  0.14966853874E-02  0.35023395612E-01  0.71508003141E-01  0.51100000000E-03 0. -1.
</event>
<event>
 8    1  0.1093753E+005  0.1043930E+01  0.7957747E-01            NaN
         13   -1    0    0    0    0  0.00000000000E+00  0.00000000000E+00  0.74505805969E-08  0.10566000000E+00  0.10566000000E+00 0.  1.
     999900   -1    0    0    0    0 -0.00000000000E+00 -0.00000000000E+00 -0.74505805969E-08  0.93827000000E+00  0.93827000000E+00 0. -1.
     999902    2    1    2    0    0  0.14434249117E-01  0.16229166808E-01 -0.88219499534E-02  0.10204872996E+01  0.10202180004E+01 0.  0.
     999903    2    3    3    0    0 -0.46230973922E-01  0.12162745674E+00 -0.39181634793E-02  0.13211062499E+00  0.22523855026E-01 0.  0.
         14    1    1    2    0    0 -0.14434249117E-01 -0.16229166808E-01  0.88219499534E-02  0.23442700439E-01  0.00000000000E+00 0.  1.
     999901    1    3    3    0    0  0.60665223039E-01 -0.10539828994E+00 -0.49037864741E-02  0.88837667458E+00  0.88000000000E+00 0. -1.
        -11    1    4    4    0    0 -0.21667079976E-01  0.40674715473E-01 -0.10454725675E-01  0.47259467236E-01  0.51100000000E-03 0.  1.
         11    1    4    4    0    0 -0.24563893946E-01  0.80952741272E-01  0.65365621958E-02  0.84851157750E-01  0.51100000000E-03 0. -1.
</event>
<event>
 8    1  0.1093753E+005  0.1043930E+01  0.7957747E-01            NaN
         13   -1    0    0    0    0  0.00000000000E+00  0.00000000000E+00  0.74505805969E-08  0.10566000000E+00  0.10566000000E+00 0. -1.
     999900   -1    0    0    0    0 -0.00000000000E+00 -0.00000000000E+00 -0.74505805969E-08  0.93827000000E+00  0.93827000000E+00 0.  1.
     999902    2    1    2    0    0  0.15515873015E-01  0.11051764067E-01 -0.12410246244E-01  0.10211946087E+01  0.10209414924E+01 0.  0.
     999903    2    3    3    0    0  0.10445223479E+00 -0.44696845178E-01 -0.66735709233E-01  0.13329324044E+00  0.20133448262E-01 0.  0.
         14    1    1    2    0    0 -0.15515873015E-01 -0.11051764067E-01  0.12410246244E-01  0.22735391271E-01  0.00000000000E+00 0. -1.
     999901    1    3    3    0    0 -0.88936361775E-01  0.55748609245E-01  0.54325462989E-01  0.88790136829E+00  0.88000000000E+00 0. -1.
        -11    1    4    4    0    0  0.77584758961E-01 -0.34729059182E-01 -0.59417897680E-01  0.10371234286E+00  0.51100000000E-03 0.  1.
         11    1    4    4    0    0  0.26867475828E-01 -0.99677859959E-02 -0.73178115532E-02  0.29580897586E-01  0.51100000000E-03 0. -1.
</event>
<event>
 8    1  0.1093753E+005  0.1043930E+01  0.7957747E-01            NaN
         13   -1    0    0    0    0  0.00000000000E+00  0.00000000000E+00  0.74505805969E-08  0.10566000000E+00  0.10566000000E+00 0. -1.
     999900   -1    0    0    0    0 -0.00000000000E+00 -0.00000000000E+00 -0.74505805969E-08  0.93827000000E+00  0.93827000000E+00 0. -1.
     999902    2    1    2    0    0 -0.12601707532E-01  0.23258205483E-02 -0.20049096871E-01  0.10201354889E+01  0.10198579494E+01 0.  0.
     999903    2    3    3    0    0 -0.75202068929E-01  0.10303277524E+00 -0.28178387101E-01  0.13214518413E+00  0.19930485302E-01 0.  0.
         14    1    1    2    0    0  0.12601707532E-01 -0.23258205483E-02  0.20049096871E-01  0.23794511116E-01  0.00000000000E+00 0. -1.
     999901    1    3    3    0    0  0.62600361397E-01 -0.10070695470E+00  0.81292902308E-02  0.88799030475E+00  0.88000000000E+00 0. -1.
        -11    1    4    4    0    0 -0.38626493270E-01  0.38440291562E-01 -0.16934940936E-01  0.57067638318E-01  0.51100000000E-03 0.  1.
         11    1    4    4    0    0 -0.36575575659E-01  0.64592483682E-01 -0.11243446166E-01  0.75077545815E-01  0.51100000000E-03 0. -1.
</event>
<event>
 8    1  0.1093753E+005  0.1043930E+01  0.7957747E-01            NaN
         13   -1    0    0    0    0  0.00000000000E+00  0.00000000000E+00  0.74505805969E-08  0.10566000000E+00  0.10566000000E+00 0. -1.
     999900   -1    0    0    0    0 -0.00000000000E+00 -0.00000000000E+00 -0.74505805969E-08  0.93827000000E+00  0.93827000000E+00 0. -1.
     999902    2    1    2    0    0  0.60877587541E-02 -0.48737086114E-02 -0.22521141600E-01  0.10200969209E+01  0.10198184703E+01 0.  0.
     999903    2    3    3    0    0 -0.12096865768E+00  0.35728127978E-01 -0.24912718823E-01  0.13004211259E+00  0.19503646263E-01 0.  0.
         14    1    1    2    0    0 -0.60877587541E-02  0.48737086114E-02  0.22521141600E-01  0.23833079139E-01  0.00000000000E+00 0. -1.
     999901    1    3    3    0    0  0.12705641643E+00 -0.40601836589E-01  0.23915772232E-02  0.89005480827E+00  0.88000000000E+00 0.  1.
        -11    1    4    4    0    0 -0.84460203970E-01  0.23602293768E-01 -0.26262696727E-01  0.91545533404E-01  0.51100000000E-03 0. -1.
         11    1    4    4    0    0 -0.36508453708E-01  0.12125834210E-01  0.13499779043E-02  0.38496579183E-01  0.51100000000E-03 0.  1.
</event>
<event>
 8    1  0.1093753E+005  0.1043930E+01  0.7957747E-01            NaN
         13   -1    0    0    0    0  0.00000000000E+00  0.00000000000E+00  0.74505805969E-08  0.10566000000E+00  0.10566000000E+00 0. -1.
     999900   -1    0    0    0    0 -0.00000000000E+00 -0.00000000000E+00 -0.74505805969E-08  0.93827000000E+00  0.93827000000E+00 0. -1.
     999902    2    1    2    0    0  0.84613725075E-02 -0.12275662127E-01 -0.16892517080E-01  0.10213990471E+01  0.10211505127E+01 0.  0.
     999903    2    3    3    0    0  0.23965956289E-01  0.76139506728E-01 -0.10396956878E+00  0.13255707738E+00  0.19751354018E-01 0.  0.
         14    1    1    2    0    0 -0.84613725075E-02  0.12275662127E-01  0.16892517080E-01  0.22530952902E-01  0.00000000000E+00 0. -1.
     999901    1    3    3    0    0 -0.15504583782E-01 -0.88415168855E-01  0.87077051698E-01  0.88884196972E+00  0.88000000000E+00 0.  1.
        -11    1    4    4    0    0  0.65944945870E-02  0.30157776170E-01 -0.55579242008E-01  0.63579022370E-01  0.51100000000E-03 0. -1.
         11    1    4    4    0    0  0.17371461702E-01  0.45981730558E-01 -0.48390326771E-01  0.68978055009E-01  0.51100000000E-03 0.  1.
</event>
<event>
 8    1  0.1093753E+005  0.1043930E+01  0.7957747E-01            NaN
         13   -1    0    0    0    0  0.00000000000E+00  0.00000000000E+00  0.74505805969E-08  0.10566000000E+00  0.10566000000E+00 0.  1.
     999900   -1    0    0    0    0 -0.00000000000E+00 -0.00000000000E+00 -0.74505805969E-08  0.93827000000E+00  0.93827000000E+00 0.  1.
     999902    2    1    2    0    0  0.17704880487E-01  0.64251415290E-03  0.56926372758E-02  0.10253213532E+01  0.10251524743E+01 0.  0.
     999903    2    3    3    0    0  0.93367593375E-01  0.67684741368E-02  0.98345962223E-01  0.13720705190E+00  0.19761757778E-01 0.  0.
         14    1    1    2    0    0 -0.17704880487E-01 -0.64251415290E-03 -0.56926372758E-02  0.18608646825E-01  0.00000000000E+00 0. -1.
     999901    1    3    3    0    0 -0.75662712888E-01 -0.61259599839E-02 -0.92653324947E-01  0.88811430128E+00  0.88000000000E+00 0.  1.
        -11    1    4    4    0    0  0.23743109579E-01  0.52761793862E-02  0.37656792755E-01  0.44831556777E-01  0.51100000000E-03 0.  1.
         11    1    4    4    0    0  0.69624483795E-01  0.14922947506E-02  0.60689169468E-01  0.92375495122E-01  0.51100000000E-03 0. -1.
</event>
<event>
 7    1  0.1093753E+005  0.1043930E+01  0.7957747E-01            NaN
         13   -1    0    0    0    0  0.00000000000E+00  0.00000000000E+00  0.74505805969E-08  0.10566000000E+00  0.10566000000E+00 0. -1.
     999900   -1    0    0    0    0 -0.00000000000E+00 -0.00000000000E+00 -0.74505805969E-08  0.93827000000E+00  0.93827000000E+00 0.  1.
     999902    2    1    2    0    0 -0.73719801116E-02 -0.33478482099E-02  0.22835357898E-01  0.10197017572E+01  0.10194138835E+01 0.  0.
         14    1    1    2    0    0  0.73719801116E-02  0.33478482099E-02 -0.22835357898E-01  0.24228242791E-01  0.00000000000E+00 0.  1.
     999901    1    3    3    0    0 -0.11271963009E+00  0.13890276942E-01 -0.35136828753E-01  0.88799394792E+00  0.88000000000E+00 0.  1.
        -11    1    3    3    0    0  0.24225442700E-01 -0.30006973809E-02 -0.85141700787E-02  0.25857851263E-01  0.51100000000E-03 0. -1.
         11    1    3    3    0    0  0.81122207275E-01 -0.14237427771E-01  0.66486356730E-01  0.10584995803E+00  0.51100000000E-03 0.  1.
</event>
<event>
 8    1  0.1093753E+005  0.1043930E+01  0.7957747E-01            NaN
         13   -1    0    0    0    0  0.00000000000E+00  0.00000000000E+00  0.74505805969E-08  0.10566000000E+00  0.10566000000E+00 0.  1.
     999900   -1    0    0    0    0 -0.00000000000E+00 -0.00000000000E+00 -0.74505805969E-08  0.93827000000E+00  0.93827000000E+00 0. -1.
     999902    2    1    2    0    0 -0.53791587997E-02 -0.35183154600E-02 -0.22266177787E-01  0.10207546561E+01  0.10204915342E+01 0.  0.
     999903    2    3    3    0    0 -0.71633932398E-01  0.10033063840E+00 -0.42190067765E-01  0.13195138108E+00  0.20820851974E-01 0.  0.
         14    1    1    2    0    0  0.53791587997E-02  0.35183154600E-02  0.22266177787E-01  0.23175343931E-01  0.00000000000E+00 0.  1.
     999901    1    3    3    0    0  0.66254773598E-01 -0.10384895386E+00  0.19923889978E-01  0.88880327499E+00  0.88000000000E+00 0.  1.
        -11    1    4    4    0    0 -0.33344119457E-01  0.54185847254E-01 -0.31668532138E-01  0.71071044693E-01  0.51100000000E-03 0.  1.
         11    1    4    4    0    0 -0.38289812941E-01  0.46144791150E-01 -0.10521535627E-01  0.60880336385E-01  0.51100000000E-03 0. -1.
</event>
<event>
 8    1  0.1093753E+005  0.1043930E+01  0.7957747E-01            NaN
         13   -1    0    0    0    0  0.00000000000E+00  0.00000000000E+00  0.74505805969E-08  0.10566000000E+00  0.10566000000E+00 0.  1.
     999900   -1    0    0    0    0 -0.00000000000E+00 -0.00000000000E+00 -0.74505805969E-08  0.93827000000E+00  0.93827000000E+00 0.  1.
     999902    2    1    2    0    0 -0.19300781633E-01 -0.84879271806E-02 -0.95271846803E-02  0.10207927502E+01  0.10205305025E+01 0.  0.
     999903    2    3    3    0    0  0.69668712248E-01  0.10421810034E+00  0.19249961752E-01  0.12869054551E+00  0.21807190829E-01 0.  0.
         14    1    1    2    0    0  0.19300781633E-01  0.84879271806E-02  0.95271846803E-02  0.23137249781E-01  0.00000000000E+00 0. -1.
     999901    1    3    3    0    0 -0.88969493881E-01 -0.11270602752E+00 -0.28777146432E-01  0.89210220470E+00  0.88000000000E+00 0.  1.
        -11    1    4    4    0    0  0.64991128635E-01  0.82889408062E-01  0.14333196847E-01  0.10630241024E+00  0.51100000000E-03 0.  1.
         11    1    4    4    0    0  0.46775836125E-02  0.21328692282E-01  0.49167649051E-02  0.22388135273E-01  0.51100000000E-03 0. -1.
</event>
<event>
 8    1  0.1093753E+005  0.1043930E+01  0.7957747E-01            NaN
         13   -1    0    0    0    0  0.00000000000E+00  0.00000000000E+00  0.74505805969E-08  0.10566000000E+00  0.10566000000E+00 0.  1.
     999900   -1    0    0    0    0 -0.00000000000E+00 -0.00000000000E+00 -0.74505805969E-08  0.93827000000E+00  0.93827000000E+00 0.  1.
     999902    2    1    2    0    0 -0.84268948665E-03 -0.23224541996E-01  0.25624555895E-02  0.10205493316E+01  0.10202814722E+01 0.  0.
     999903    2    3    3    0    0  0.75223743563E-01  0.65320949583E-01  0.80236842543E-01  0.12944904728E+00  0.19841040560E-01 0.  0.
         14    1    1    2    0    0  0.84268948665E-03  0.23224541996E-01 -0.25624555895E-02  0.23380668406E-01  0.00000000000E+00 0. -1.
     999901    1    3    3    0    0 -0.76066433049E-01 -0.88545491578E-01 -0.77674386953E-01  0.89110028431E+00  0.88000000000E+00 0.  1.
        -11    1    4    4    0    0  0.31873961761E-01  0.36896693792E-01  0.47889646921E-01  0.68344676854E-01  0.51100000000E-03 0. -1.
         11    1    4    4    0    0  0.43349781802E-01  0.28424255791E-01  0.32347195622E-01  0.61104370426E-01  0.51100000000E-03 0.  1.
</event>
<event>
 8    1  0.1093753E+005  0.1043930E+01  0.7957747E-01            NaN
         13   -1    0    0    0    0  0.00000000000E+00  0.00000000000E+00  0.74505805969E-08  0.10566000000E+00  0.10566000000E+00 0. -1.
     999900   -1    0    0    0    0 -0.00000000000E+00 -0.00000000000E+00 -0.74505805969E-08  0.93827000000E+00  0.93827000000E+00 0.  1.
     999902    2    1    2    0    0 -0.60815275446E-02  0.21529283578E-01 -0.10716069403E-01  0.10191241706E+01  0.10188222347E+01 0.  0.
     999903    2    3    3    0    0  0.64160107525E-02 -0.13274761487E-01 -0.12818154710E+00  0.13054910429E+00  0.19879012227E-01 0.  0.
         14    1    1    2    0    0  0.60815275446E-02 -0.21529283578E-01  0.10716069403E-01  0.24805829397E-01  0.00000000000E+00 0. -1.
     999901    1    3    3    0    0 -0.12497538297E-01  0.34804045065E-01  0.11746547770E+00  0.88857506631E+00  0.88000000000E+00 0. -1.
        -11    1    4    4    0    0  0.73085115013E-02 -0.56439640798E-02 -0.11431276291E+00  0.11468625705E+00  0.51100000000E-03 0. -1.
         11    1    4    4    0    0 -0.89250074880E-03 -0.76307974073E-02 -0.13868784198E-01  0.15862847248E-01  0.51100000000E-03 0.  1.
</event>
<event>
 8    1  0.1093753E+005  0.1043930E+01  0.7957747E-01            NaN
         13   -1    0    0    0    0  0.00000000000E+00  0.00000000000E+00  0.74505805969E-08  0.10566000000E+00  0.10566000000E+00 0. -1.
     999900   -1    0    0    0    0 -0.00000000000E+00 -0.00000000000E+00 -0.74505805969E-08  0.93827000000E+00  0.93827000000E+00 0. -1.
     999902    2    1    2    0    0 -0.10025137194E-01  0.36143924536E-02 -0.20792780931E-01  0.10205653483E+01  0.10202978601E+01 0.  0.
     999903    2    3    3    0    0  0.87986637453E-01  0.85790526410E-01 -0.40801318319E-01  0.13109383866E+00  0.20473987522E-01 0.  0.
         14    1    1    2    0    0  0.10025137194E-01 -0.36143924536E-02  0.20792780931E-01  0.23364651665E-01  0.00000000000E+00 0. -1.
     999901    1    3    3    0    0 -0.98011774648E-01 -0.82176133956E-01  0.20008537389E-01  0.88947150968E+00  0.88000000000E+00 0. -1.
        -11    1    4    4    0    0  0.52298750553E-01  0.51197813953E-01 -0.13630066716E-01  0.74447399569E-01  0.51100000000E-03 0.  1.
         11    1    4    4    0    0  0.35687886901E-01  0.34592712457E-01 -0.27171251604E-01  0.56646439087E-01  0.51100000000E-03 0. -1.
</event>
<event>
 8    1  0.1093753E+005  0.1043930E+01  0.7957747E-01            NaN
         13   -1    0    0    0    0  0.00000000000E+00  0.00000000000E+00  0.74505805969E-08  0.10566000000E+00  0.10566000000E+00 0.  1.
     999900   -1    0    0    0    0 -0.00000000000E+00 -0.00000000000E+00 -0.74505805969E-08  0.93827000000E+00  0.93827000000E+00 0. -1.
     999902    2    1    2    0    0 -0.24706155165E-01 -0.52621023564E-03 -0.35046863991E-02  0.10189709570E+01  0.10186652332E+01 0.  0.
     999903    2    3    3    0    0 -0.78096696499E-01  0.65560301064E-01  0.79541742450E-01  0.13098746267E+00  0.20822571992E-01 0.  0.
         14    1    1    2    0    0  0.24706155165E-01  0.52621023564E-03  0.35046863991E-02  0.24959042990E-01  0.00000000000E+00 0.  1.
     999901    1    3    3    0    0  0.53390541335E-01 -0.66086511299E-01 -0.83046428849E-01  0.88798349434E+00  0.88000000000E+00 0. -1.
        -11    1    4    4    0    0 -0.12076647629E-01  0.20627935283E-01  0.14250479221E-01  0.27833332733E-01  0.51100000000E-03 0. -1.
         11    1    4    4    0    0 -0.66020048870E-01  0.44932365781E-01  0.65291263229E-01  0.10315412993E+00  0.51100000000E-03 0.  1.
</event>
<event>
 8    1  0.1093753E+005  0.1043930E+01  0.7957747E-01            NaN
         13   -1    0    0    0    0  0.00000000000E+00  0.00000000000E+00  0.74505805969E-08  0.10566000000E+00  0.10566000000E+00 0. -1.
     999900   -1    0    0    0    0 -0.00000000000E+00 -0.00000000000E+00 -0.74505805969E-08  0.93827000000E+00  0.93827000000E+00 0.  1.
     999902    2    1    2    0    0  0.14610861731E-01  0.35980187319E-02  0.18828327132E-01  0.10198275329E+01  0.10195426758E+01 0.  0.
     999903    2    3    3    0    0 -0.89041032334E-01 -0.82654215525E-01  0.41472161645E-01  0.12926821070E+00  0.15175813745E-01 0.  0.
         14    1    1    2    0    0 -0.14610861731E-01 -0.35980187319E-02 -0.18828327132E-01  0.24102467133E-01  0.00000000000E+00 0.  1.
     999901    1    3    3    0    0  0.10365189407E+00  0.86252234256E-01 -0.22643834513E-01  0.89055932217E+00  0.88000000000E+00 0. -1.
        -11    1    4    4    0    0 -0.40559384123E-01 -0.43507341462E-01  0.13677479338E-01  0.61035128931E-01  0.51100000000E-03 0. -1.
         11    1    4    4    0    0 -0.48481648211E-01 -0.39146874063E-01  0.27794682307E-01  0.68233081769E-01  0.51100000000E-03 0.  1.
</event>
<event>
 8    1  0.1093753E+005  0.1043930E+01  0.7957747E-01            NaN
         13   -1    0    0    0    0  0.00000000000E+00  0.00000000000E+00  0.74505805969E-08  0.10566000000E+00  0.10566000000E+00 0. -1.
     999900   -1    0    0    0    0 -0.00000000000E+00 -0.00000000000E+00 -0.74505805969E-08  0.93827000000E+00  0.93827000000E+00 0.  1.
     999902    2    1    2    0    0  0.48950595877E-02  0.19618587018E-01 -0.12189458750E-01  0.10203199710E+01  0.10200467684E+01 0.  0.
     999903    2    3    3    0    0  0.18540525868E-01 -0.11697231666E+00 -0.46954862382E-01  0.12899965427E+00  0.20245437404E-01 0.  0.
         14    1    1    2    0    0 -0.48950595877E-02 -0.19618587018E-01  0.12189458750E-01  0.23610029004E-01  0.00000000000E+00 0. -1.
     999901    1    3    3    0    0 -0.13645466280E-01  0.13659090368E+00  0.34765403632E-01  0.89132031673E+00  0.88000000000E+00 0. -1.
        -11    1    4    4    0    0  0.17314284140E-01 -0.47987522961E-01 -0.16947667559E-01  0.53759383850E-01  0.51100000000E-03 0.  1.
         11    1    4    4    0    0  0.12262417279E-02 -0.68984793702E-01 -0.30007194823E-01  0.75240270421E-01  0.51100000000E-03 0. -1.
</event>
<event>
 8    1  0.1093753E+005  0.1043930E+01  0.7957747E-01            NaN
         13   -1    0    0    0    0  0.00000000000E+00  0.00000000000E+00  0.74505805969E-08  0.10566000000E+00  0.10566000000E+00 0.  1.
     999900   -1    0    0    0    0 -0.00000000000E+00 -0.00000000000E+00 -0.74505805969E-08  0.93827000000E+00  0.93827000000E+00 0.  1.
     999902    2    1    2    0    0 -0.62400273482E-02  0.18246425123E-01  0.13219209500E-01  0.10205501482E+01  0.10202823077E+01 0.  0.
     999903    2    3    3    0    0  0.43585257316E-01  0.29151406234E-01  0.11973316045E+00  0.13266124784E+00  0.22660490454E-01 0.  0.
         14    1    1    2    0    0  0.62400273482E-02 -0.18246425123E-01 -0.13219209500E-01  0.23379851815E-01  0.00000000000E+00 0. -1.
     999901    1    3    3    0    0 -0.49825284664E-01 -0.10904981111E-01 -0.10651395095E+00  0.88788890034E+00  0.88000000000E+00 0.  1.
        -11    1    4    4    0    0  0.25898867903E-01  0.27062018221E-01  0.64091508648E-01  0.74236694368E-01  0.51100000000E-03 0. -1.
         11    1    4    4    0    0  0.17686389413E-01  0.20893880128E-02  0.55641651800E-01  0.58424553475E-01  0.51100000000E-03 0.  1.
</event>
<event>
 8    1  0.1093753E+005  0.1043930E+01  0.7957747E-01            NaN
         13   -1    0    0    0    0  0.00000000000E+00  0.00000000000E+00  0.74505805969E-08  0.10566000000E+00  0.10566000000E+00 0. -1.
     999900   -1    0    0    0    0 -0.00000000000E+00 -0.00000000000E+00 -0.74505805969E-08  0.93827000000E+00  0.93827000000E+00 0.  1.
     999902    2    1    2    0    0  0.21631731227E-01  0.56914056328E-02 -0.64067731406E-02  0.10206626272E+01  0.10203973873E+01 0.  0.
     999903    2    3    3    0    0  0.10800773165E-01 -0.33014786811E-01 -0.12538508670E+00  0.13174681676E+00  0.20716440569E-01 0.  0.
         14    1    1    2    0    0 -0.21631731227E-01 -0.56914056328E-02  0.64067731406E-02  0.23267372779E-01  0.00000000000E+00 0. -1.
     999901    1    3    3    0    0  0.10830958062E-01  0.38706192443E-01  0.11897831356E+00  0.88891581046E+00  0.88000000000E+00 0. -1.
        -11    1    4    4    0    0  0.11689648583E-01 -0.21439747136E-01 -0.52038852615E-01  0.57485771664E-01  0.51100000000E-03 0. -1.
         11    1    4    4    0    0 -0.88887541788E-03 -0.11575039674E-01 -0.73346234089E-01  0.74261045098E-01  0.51100000000E-03 0.  1.
</event>
<event>
 8    1  0.1093753E+005  0.1043930E+01  0.7957747E-01            NaN
         13   -1    0    0    0    0  0.00000000000E+00  0.00000000000E+00  0.74505805969E-08  0.10566000000E+00  0.10566000000E+00 0. -1.
     999900   -1    0    0    0    0 -0.00000000000E+00 -0.00000000000E+00 -0.74505805969E-08  0.93827000000E+00  0.93827000000E+00 0. -1.
     999902    2    1    2    0    0 -0.20059360076E-01 -0.64816835024E-02  0.10076300295E-01  0.10205650267E+01  0.10202975310E+01 0.  0.
     999903    2    3    3    0    0 -0.31877380952E-01  0.12555809003E+00  0.66192244717E-02  0.13062900725E+00  0.15463570570E-01 0.  0.
         14    1    1    2    0    0  0.20059360076E-01  0.64816835024E-02 -0.10076300295E-01  0.23364973258E-01  0.00000000000E+00 0. -1.
     999901    1    3    3    0    0  0.11818020876E-01 -0.13203977353E+00  0.34570758238E-02  0.88993601949E+00  0.88000000000E+00 0. -1.
        -11    1    4    4    0    0 -0.30466975544E-01  0.12281714717E+00  0.40862143092E-02  0.12660666059E+00  0.51100000000E-03 0.  1.
         11    1    4    4    0    0 -0.14104054083E-02  0.27409428605E-02  0.25330101625E-02  0.40223466613E-02  0.51100000000E-03 0. -1.
</event>
<event>
 8    1  0.1093753E+005  0.1043930E+01  0.7957747E-01            NaN
         13   -1    0    0    0    0  0.00000000000E+00  0.00000000000E+00  0.74505805969E-08  0.10566000000E+00  0.10566000000E+00 0. -1.
     999900   -1    0    0    0    0 -0.00000000000E+00 -0.00000000000E+00 -0.74505805969E-08  0.93827000000E+00  0.93827000000E+00 0.  1.
     999902    2    1    2    0    0 -0.23218433146E-01  0.50150656718E-02 -0.74023505520E-02  0.10190494591E+01  0.10187456792E+01 0.  0.
     999903    2    3    3    0    0  0.30267666314E-01  0.87599582060E-01 -0.88858921327E-01  0.12982724947E+00  0.19219479842E-01 0.  0.
         14    1    1    2    0    0  0.23218433146E-01 -0.50150656718E-02  0.74023505520E-02  0.24880540893E-01  0.00000000000E+00 0.  1.
     999901    1    3    3    0    0 -0.53486099460E-01 -0.82584516388E-01  0.81456570775E-01  0.88922220963E+00  0.88000000000E+00 0. -1.
        -11    1    4    4    0    0  0.14539118729E-01  0.46312806810E-01 -0.59444941409E-01  0.76747796244E-01  0.51100000000E-03 0. -1.
         11    1    4    4    0    0  0.15728547585E-01  0.41286775250E-01 -0.29413979917E-01  0.53079453230E-01  0.51100000000E-03 0.  1.
</event>
<event>
 8    1  0.1093753E+005  0.1043930E+01  0.7957747E-01            NaN
         13   -1    0    0    0    0  0.00000000000E+00  0.00000000000E+00  0.74505805969E-08  0.10566000000E+00  0.10566000000E+00 0. -1.
     999900   -1    0    0    0    0 -0.00000000000E+00 -0.00000000000E+00 -0.74505805969E-08  0.93827000000E+00  0.93827000000E+00 0.  1.
     999902    2    1    2    0    0  0.12935460600E-01 -0.18911171151E-01 -0.81198275850E-02  0.10196217682E+01  0.10193319675E+01 0.  0.
     999903    2    3    3    0    0 -0.53260005121E-01  0.63305868879E-01 -0.96781942329E-01  0.12889035413E+00  0.20042900132E-01 0.  0.
         14    1    1    2    0    0 -0.12935460600E-01  0.18911171151E-01  0.81198275850E-02  0.24308231842E-01  0.00000000000E+00 0.  1.
     999901    1    3    3    0    0  0.66195465721E-01 -0.82217040030E-01  0.88662114744E-01  0.89073141403E+00  0.88000000000E+00 0. -1.
        -11    1    4    4    0    0 -0.51723871980E-01  0.55197926243E-01 -0.92763600785E-01  0.11969760543E+00  0.51100000000E-03 0. -1.
         11    1    4    4    0    0 -0.15361331402E-02  0.81079426357E-02 -0.40183415440E-02  0.91927486952E-02  0.51100000000E-03 0.  1.
</event>
<event>
 8    1  0.1093753E+005  0.1043930E+01  0.7957747E-01            NaN
         13   -1    0    0    0    0  0.00000000000E+00  0.00000000000E+00  0.74505805969E-08  0.10566000000E+00  0.10566000000E+00 0.  1.
     999900   -1    0    0    0    0 -0.00000000000E+00 -0.00000000000E+00 -0.74505805969E-08  0.93827000000E+00  0.93827000000E+00 0.  1.
     999902    2    1    2    0    0 -0.49529962002E-02  0.23095107101E-01 -0.10829916678E-02  0.10202849368E+01  0.10200109133E+01 0.  0.
     999903    2    3    3    0    0 -0.73285776688E-01 -0.79444959500E-01  0.66622643416E-01  0.12912395965E+00  0.23497099517E-01 0.  0.
         14    1    1    2    0    0  0.49529962002E-02 -0.23095107101E-01  0.10829916678E-02  0.23645063212E-01  0.00000000000E+00 0.  1.
     999901    1    3    3    0    0  0.68332780488E-01  0.10254006660E+00 -0.67705635084E-01  0.89116097714E+00  0.88000000000E+00 0.  1.
        -11    1    4    4    0    0 -0.64266017062E-01 -0.65484169970E-01  0.64942564003E-01  0.11241038745E+00  0.51100000000E-03 0.  1.
         11    1    4    4    0    0 -0.90197596259E-02 -0.13960789530E-01  0.16800794124E-02  0.16713572205E-01  0.51100000000E-03 0. -1.
</event>
<event>
 8    1  0.1093753E+005  0.1043930E+01  0.7957747E-01            NaN
         13   -1    0    0    0    0  0.00000000000E+00  0.00000000000E+00  0.74505805969E-08  0.10566000000E+00  0.10566000000E+00 0.  1.
     999900   -1    0    0    0    0 -0.00000000000E+00 -0.00000000000E+00 -0.74505805969E-08  0.93827000000E+00  0.93827000000E+00 0.  1.
     999902    2    1    2    0    0  0.19356838437E-01 -0.29763948274E-02  0.14086863871E-01  0.10198056170E+01  0.10195202355E+01 0.  0.
     999903    2    3    3    0    0  0.85623722869E-01 -0.13285997815E-01  0.99076602547E-01  0.13317105669E+00  0.20258763854E-01 0.  0.
         14    1    1    2    0    0 -0.19356838437E-01  0.29763948274E-02 -0.14086863871E-01  0.24124382979E-01  0.00000000000E+00 0. -1.
     999901    1    3    3    0    0 -0.66266884432E-01  0.10309602988E-01 -0.84989738676E-01  0.88663456033E+00  0.88000000000E+00 0.  1.
        -11    1    4    4    0    0  0.33294138002E-01 -0.98359680611E-02  0.52998452333E-01  0.63358842821E-01  0.51100000000E-03 0. -1.
         11    1    4    4    0    0  0.52329584867E-01 -0.34500297544E-02  0.46078150214E-01  0.69812213873E-01  0.51100000000E-03 0.  1.
</event>
<event>
 8    1  0.1093753E+005  0.1043930E+01  0.7957747E-01            NaN
         13   -1    0    0    0    0  0.00000000000E+00  0.00000000000E+00  0.74505805969E-08  0.10566000000E+00  0.10566000000E+00 0. -1.
     999900   -1    0    0    0    0 -0.00000000000E+00 -0.00000000000E+00 -0.74505805969E-08  0.93827000000E+00  0.93827000000E+00 0. -1.
     999902    2    1    2    0    0 -0.21801919379E-01  0.85730497812E-02 -0.46088246097E-02  0.10200540260E+01  0.10197745603E+01 0.  0.
     999903    2    3    3    0    0  0.12525998166E+00 -0.11872855306E-01 -0.11417076415E-02  0.12760948503E+00  0.21256751272E-01 0.  0.
         14    1    1    2    0    0  0.21801919379E-01 -0.85730497812E-02  0.46088246097E-02  0.23875974021E-01  0.00000000000E+00 0. -1.
     999901    1    3    3    0    0 -0.14706190104E+00  0.20445905087E-01 -0.34671169682E-02  0.89244454095E+00  0.88000000000E+00 0. -1.
        -11    1    4    4    0    0  0.54919129047E-01  0.22328012772E-02 -0.79722363824E-02  0.55542000421E-01  0.51100000000E-03 0.  1.
         11    1    4    4    0    0  0.70340852612E-01 -0.14105656583E-01  0.68305287409E-02  0.72067484608E-01  0.51100000000E-03 0. -1.
</event>
<event>
 8    1  0.1093753E+005  0.1043930E+01  0.7957747E-01            NaN
         13   -1    0    0    0    0  0.00000000000E+00  0.00000000000E+00  0.74505805969E-08  0.10566000000E+00  0.10566000000E+00 0.  1.
     999900   -1    0    0    0    0 -0.00000000000E+00 -0.00000000000E+00 -0.74505805969E-08  0.93827000000E+00  0.93827000000E+00 0. -1.
     999902    2    1    2    0    0 -0.38065873259E-02 -0.23404964211E-01 -0.15233681818E-02  0.10201686215E+01  0.10198918635E+01 0.  0.
     999903    2    3    3    0    0 -0.10253288121E+00 -0.78320796273E-01 -0.24024671364E-01  0.13266147317E+00  0.19358273982E-01 0.  0.
         14    1    1    2    0    0  0.38065873259E-02  0.23404964211E-01  0.15233681818E-02  0.23761378483E-01  0.00000000000E+00 0.  1.
     999901    1    3    3    0    0  0.98726293889E-01  0.54915832062E-01  0.22501303182E-01  0.88750714834E+00  0.88000000000E+00 0.  1.
        -11    1    4    4    0    0 -0.79458265954E-01 -0.66244321824E-01 -0.25577613699E-01  0.10656641894E+00  0.51100000000E-03 0. -1.
         11    1    4    4    0    0 -0.23074615261E-01 -0.12076474449E-01  0.15529423345E-02  0.26095054233E-01  0.51100000000E-03 0.  1.
</event>
<event>
 8    1  0.1093753E+005  0.1043930E+01  0.7957747E-01            NaN
         13   -1    0    0    0    0  0.00000000000E+00  0.00000000000E+00  0.74505805969E-08  0.10566000000E+00  0.10566000000E+00 0. -1.
     999900   -1    0    0    0    0 -0.00000000000E+00 -0.00000000000E+00 -0.74505805969E-08  0.93827000000E+00  0.93827000000E+00 0. -1.
     999902    2    1    2    0    0 -0.20493135157E-01 -0.94224549547E-02  0.67705660809E-02  0.10203802269E+01  0.10201084333E+01 0.  0.
     999903    2    3    3    0    0 -0.11278271038E-01  0.89202364188E-01 -0.90762306371E-01  0.12946809330E+00  0.20974502370E-01 0.  0.
         14    1    1    2    0    0  0.20493135157E-01  0.94224549547E-02 -0.67705660809E-02  0.23549773056E-01  0.00000000000E+00 0.  1.
     999901    1    3    3    0    0 -0.92148641189E-02 -0.98624819143E-01  0.97532872452E-01  0.89091213365E+00  0.88000000000E+00 0.  1.
        -11    1    4    4    0    0  0.37418911927E-02  0.12971900450E-01 -0.21433431016E-01  0.25336239600E-01  0.51100000000E-03 0.  1.
         11    1    4    4    0    0 -0.15020162230E-01  0.76230463738E-01 -0.69328875356E-01  0.10413185370E+00  0.51100000000E-03 0. -1.
</event>
<event>
 8    1  0.1093753E+005  0.1043930E+01  0.7957747E-01            NaN
         13   -1    0    0    0    0  0.00000000000E+00  0.00000000000E+00  0.74505805969E-08  0.10566000000E+00  0.10566000000E+00 0.  1.
     999900   -1    0    0    0    0 -0.00000000000E+00 -0.00000000000E+00 -0.74505805969E-08  0.93827000000E+00  0.93827000000E+00 0.  1.
     999902    2    1    2    0    0  0.55646554546E-02 -0.33911039557E-02 -0.23642489344E-01  0.10194058837E+01  0.10191108495E+01 0.  0.
     999903    2    3    3    0    0  0.63390853540E-02 -0.12539214702E+00 -0.30999933655E-01  0.13095836911E+00  0.20633080636E-01 0.  0.
         14    1    1    2    0    0 -0.55646554546E-02  0.33911039557E-02  0.23642489344E-01  0.24524116269E-01  0.00000000000E+00 0.  1.
     999901    1    3    3    0    0 -0.77442989935E-03  0.12200104306E+00  0.73574443109E-02  0.88844751462E+00  0.88000000000E+00 0.  1.
        -11    1    4    4    0    0 -0.46968867800E-02 -0.54153886499E-01 -0.61529682310E-02  0.54706711722E-01  0.51100000000E-03 0.  1.
         11    1    4    4    0    0  0.11035972134E-01 -0.71238260518E-01 -0.24846965424E-01  0.76251657388E-01  0.51100000000E-03 0. -1.
</event>
<event>
 8    1  0.1093753E+005  0.1043930E+01  0.7957747E-01            NaN
         13   -1    0    0    0    0  0.00000000000E+00  0.00000000000E+00  0.74505805969E-08  0.10566000000E+00  0.10566000000E+00 0.  1.
     999900   -1    0    0    0    0 -0.00000000000E+00 -0.00000000000E+00 -0.74505805969E-08  0.93827000000E+00  0.93827000000E+00 0.  1.
     999902    2    1    2    0    0 -0.38644962471E-02  0.19961442735E-01 -0.12490649006E-01  0.10200676900E+01  0.10197885478E+01 0.  0.
     999903    2    3    3    0    0 -0.28368917746E-01 -0.12297042910E+00  0.95086179535E-02  0.12792759200E+00  0.18669039963E-01 0.  0.
         14    1    1    2    0    0  0.38644962471E-02 -0.19961442735E-01  0.12490649006E-01  0.23862310029E-01  0.00000000000E+00 0.  1.
     999901    1    3    3    0    0  0.24504421499E-01  0.14293187183E+00 -0.21999266959E-01  0.89214009797E+00  0.88000000000E+00 0. -1.
        -11    1    4    4    0    0 -0.69588370538E-02 -0.57420898603E-01 -0.26527126643E-02  0.57904084614E-01  0.51100000000E-03 0. -1.
         11    1    4    4    0    0 -0.21410080692E-01 -0.65549530496E-01  0.12161330618E-01  0.70023507387E-01  0.51100000000E-03 0.  1.
</event>
<event>
 8    1  0.1093753E+005  0.1043930E+01  0.7957747E-01            NaN
         13   -1    0    0    0    0  0.00000000000E+00  0.00000000000E+00  0.74505805969E-08  0.10566000000E+00  0.10566000000E+00 0. -1.
     999900   -1    0    0    0    0 -0.00000000000E+00 -0.00000000000E+00 -0.74505805969E-08  0.93827000000E+00  0.93827000000E+00 0. -1.
     999902    2    1    2    0    0 -0.10080120530E-02  0.23000658293E-01  0.38162102539E-02  0.10205931229E+01  0.10203262776E+01 0.  0.
     999903    2    3    3    0    0  0.19920383993E-01 -0.12404514080E+00  0.14763609567E-01  0.12807964386E+00  0.20060218086E-01 0.  0.
         14    1    1    2    0    0  0.10080120530E-02 -0.23000658293E-01 -0.38162102539E-02  0.23336877060E-01  0.00000000000E+00 0.  1.
     999901    1    3    3    0    0 -0.20928396046E-01  0.14704579909E+00 -0.10947399314E-01  0.89251347908E+00  0.88000000000E+00 0.  1.
        -11    1    4    4    0    0 -0.17815397401E-02 -0.28315298311E-01  0.89229988479E-02  0.29745773342E-01  0.51100000000E-03 0.  1.
         11    1    4    4    0    0  0.21701923733E-01 -0.95729842486E-01  0.58406107195E-02  0.98333870516E-01  0.51100000000E-03 0. -1.
</event>
<event>
 7    1  0.1093753E+005  0.1043930E+01  0.7957747E-01            NaN
         13   -1    0    0    0    0  0.00000000000E+00  0.00000000000E+00  0.74505805969E-08  0.10566000000E+00  0.10566000000E+00 0. -1.
     999900   -1    0    0    0    0 -0.00000000000E+00 -0.00000000000E+00 -0.74505805969E-08  0.93827000000E+00  0.93827000000E+00 0.  1.
     999903    2    1    2    0    0  0.23146043562E-01 -0.11394046948E-02  0.11540004785E+00  0.11946973295E+00  0.20464810564E-01 0.  0.
         14    1    1    2    0    0 -0.89032264617E-02  0.25919162515E-01 -0.28787212386E-01  0.39746371204E-01  0.00000000000E+00 0.  1.
     999901    1    1    2    0    0 -0.14242817100E-01 -0.24779757821E-01 -0.86612835465E-01  0.88471389585E+00  0.88000000000E+00 0.  1.
        -11    1    3    3    0    0  0.13011842068E-01 -0.58439014890E-02  0.28720835291E-01  0.32071899218E-01  0.51100000000E-03 0. -1.
         11    1    3    3    0    0  0.10134201494E-01  0.47044967942E-02  0.86679212560E-01  0.87397833732E-01  0.51100000000E-03 0.  1.
</event>
<event>
 8    1  0.1093753E+005  0.1043930E+01  0.7957747E-01            NaN
         13   -1    0    0    0    0  0.00000000000E+00  0.00000000000E+00  0.74505805969E-08  0.10566000000E+00  0.10566000000E+00 0. -1.
     999900   -1    0    0    0    0 -0.00000000000E+00 -0.00000000000E+00 -0.74505805969E-08  0.93827000000E+00  0.93827000000E+00 0.  1.
     999902    2    1    2    0    0  0.92508243520E-02  0.89738973444E-02  0.20099155228E-01  0.10200535550E+01  0.10197740781E+01 0.  0.
     999903    2    3    3    0    0 -0.12663462342E+00  0.14777499804E-02 -0.13693803840E-01  0.12895142212E+00  0.20060842713E-01 0.  0.
         14    1    1    2    0    0 -0.92508243520E-02 -0.89738973444E-02 -0.20099155228E-01  0.23876444995E-01  0.00000000000E+00 0.  1.
     999901    1    3    3    0    0  0.13588544777E+00  0.74961473640E-02  0.33792959068E-01  0.89110213288E+00  0.88000000000E+00 0.  1.
        -11    1    4    4    0    0 -0.48360214394E-01 -0.64139711529E-02 -0.12090401597E-01  0.50262195475E-01  0.51100000000E-03 0. -1.
         11    1    4    4    0    0 -0.78274409027E-01  0.78917211333E-02 -0.16034022433E-02  0.78689226650E-01  0.51100000000E-03 0.  1.
</event>
<event>
 8    1  0.1093753E+005  0.1043930E+01  0.7957747E-01            NaN
         13   -1    0    0    0    0  0.00000000000E+00  0.00000000000E+00  0.74505805969E-08  0.10566000000E+00  0.10566000000E+00 0. -1.
     999900   -1    0    0    0    0 -0.00000000000E+00 -0.00000000000E+00 -0.74505805969E-08  0.93827000000E+00  0.93827000000E+00 0.  1.
     999902    2    1    2    0    0 -0.13628718532E-01 -0.97836715515E-02 -0.15643787123E-01  0.10209911623E+01  0.10207334438E+01 0.  0.
     999903    2    3    3    0    0 -0.68404617306E-02 -0.37610217856E-01  0.12229619353E+00  0.12978533012E+00  0.20653148904E-01 0.  0.
         14    1    1    2    0    0  0.13628718532E-01  0.97836715515E-02  0.15643787123E-01  0.22938837664E-01  0.00000000000E+00 0. -1.
     999901    1    3    3    0    0 -0.67882568014E-02  0.27826546304E-01 -0.13793998065E+00  0.89120583221E+00  0.88000000000E+00 0.  1.
        -11    1    4    4    0    0  0.30308613889E-02 -0.72445353262E-02  0.51789014640E-01  0.52383514308E-01  0.51100000000E-03 0. -1.
         11    1    4    4    0    0 -0.98713231195E-02 -0.30365682530E-01  0.70507178888E-01  0.77401815814E-01  0.51100000000E-03 0.  1.
</event>
<event>
 8    1  0.1093753E+005  0.1043930E+01  0.7957747E-01            NaN
         13   -1    0    0    0    0  0.00000000000E+00  0.00000000000E+00  0.74505805969E-08  0.10566000000E+00  0.10566000000E+00 0. -1.
     999900   -1    0    0    0    0 -0.00000000000E+00 -0.00000000000E+00 -0.74505805969E-08  0.93827000000E+00  0.93827000000E+00 0. -1.
     999902    2    1    2    0    0  0.10264184847E-01  0.22322518256E-01 -0.16187638232E-02  0.10193074756E+01  0.10190100397E+01 0.  0.
     999903    2    3    3    0    0 -0.96139441156E-01  0.79984952402E-01 -0.35723566322E-01  0.13037000564E+00  0.89319887160E-02 0.  0.
         14    1    1    2    0    0 -0.10264184847E-01 -0.22322518256E-01  0.16187638232E-02  0.24622524407E-01  0.00000000000E+00 0. -1.
     999901    1    3    3    0    0  0.10640362600E+00 -0.57662434146E-01  0.34104802499E-01  0.88893746996E+00  0.88000000000E+00 0.  1.
        -11    1    4    4    0    0 -0.22939486439E-01  0.17262118224E-01 -0.46525211430E-02  0.29087932853E-01  0.51100000000E-03 0.  1.
         11    1    4    4    0    0 -0.73199954717E-01  0.62722834178E-01 -0.31071045179E-01  0.10128207278E+00  0.51100000000E-03 0. -1.
</event>
<event>
 8    1  0.1093753E+005  0.1043930E+01  0.7957747E-01            NaN
         13   -1    0    0    0    0  0.00000000000E+00  0.00000000000E+00  0.74505805969E-08  0.10566000000E+00  0.10566000000E+00 0.  1.
     999900   -1    0    0    0    0 -0.00000000000E+00 -0.00000000000E+00 -0.74505805969E-08  0.93827000000E+00  0.93827000000E+00 0.  1.
     999902    2    1    2    0    0 -0.12154843288E-01 -0.15988353041E-01 -0.11278787111E-01  0.10208957063E+01  0.10206358138E+01 0.  0.
     999903    2    3    3    0    0 -0.61349110256E-01  0.10428394302E-01  0.11265038510E+00  0.13045965571E+00  0.21381014179E-01 0.  0.
         14    1    1    2    0    0  0.12154843288E-01  0.15988353041E-01  0.11278787111E-01  0.23034293716E-01  0.00000000000E+00 0.  1.
     999901    1    3    3    0    0  0.49194266968E-01 -0.26416747343E-01 -0.12392917221E+00  0.89043605058E+00  0.88000000000E+00 0.  1.
        -11    1    4    4    0    0 -0.45919369427E-01  0.12356132164E-02  0.65519039202E-01  0.80019502920E-01  0.51100000000E-03 0.  1.
         11    1    4    4    0    0 -0.15429740829E-01  0.91927810853E-02  0.47131345896E-01  0.50440152786E-01  0.51100000000E-03 0. -1.
</event>
<event>
 8    1  0.1093753E+005  0.1043930E+01  0.7957747E-01            NaN
         13   -1    0    0    0    0  0.00000000000E+00  0.00000000000E+00  0.74505805969E-08  0.10566000000E+00  0.10566000000E+00 0. -1.
     999900   -1    0    0    0    0 -0.00000000000E+00 -0.00000000000E+00 -0.74505805969E-08  0.93827000000E+00  0.93827000000E+00 0. -1.
     999902    2    1    2    0    0  0.73295932634E-02 -0.22137389020E-01  0.13429938430E-02  0.10205721199E+01  0.10203047885E+01 0.  0.
     999903    2    3    3    0    0 -0.12812063028E+00 -0.88843903528E-02 -0.72204808662E-02  0.13006903842E+00  0.19287071237E-01 0.  0.
         14    1    1    2    0    0 -0.73295932634E-02  0.22137389020E-01 -0.13429938430E-02  0.23357880094E-01  0.00000000000E+00 0.  1.
     999901    1    3    3    0    0  0.13545022354E+00 -0.13252998667E-01  0.85634747092E-02  0.89050308148E+00  0.88000000000E+00 0. -1.
        -11    1    4    4    0    0 -0.68358685899E-01 -0.54671017386E-02 -0.13445505885E-01  0.69884489615E-01  0.51100000000E-03 0.  1.
         11    1    4    4    0    0 -0.59761944382E-01 -0.34172886142E-02  0.62250250184E-02  0.60184548808E-01  0.51100000000E-03 0. -1.
</event>
<event>
 8    1  0.1093753E+005  0.1043930E+01  0.7957747E-01            NaN
         13   -1    0    0    0    0  0.00000000000E+00  0.00000000000E+00  0.74505805969E-08  0.10566000000E+00  0.10566000000E+00 0. -1.
     999900   -1    0    0    0    0 -0.00000000000E+00 -0.00000000000E+00 -0.74505805969E-08  0.93827000000E+00  0.93827000000E+00 0. -1.
     999902    2    1    2    0    0  0.14502631797E-01  0.69679231555E-02  0.18018141786E-01  0.10197735989E+01  0.10194874503E+01 0.  0.
     999903    2    3    3    0    0 -0.87048246487E-01 -0.37756698400E-01  0.85736908890E-01  0.13022387903E+00  0.24586086156E-01 0.  0.
         14    1    1    2    0    0 -0.14502631797E-01 -0.69679231555E-02 -0.18018141786E-01  0.24156401130E-01  0.00000000000E+00 0.  1.
     999901    1    3    3    0    0  0.10155087828E+00  0.44724621555E-01 -0.67718767104E-01  0.88954971984E+00  0.88000000000E+00 0.  1.
        -11    1    4    4    0    0 -0.49501266124E-01 -0.86964437925E-02  0.39220844059E-01  0.63753738810E-01  0.51100000000E-03 0. -1.
         11    1    4    4    0    0 -0.37546980362E-01 -0.29060254607E-01  0.46516064831E-01  0.66470140217E-01  0.51100000000E-03 0.  1.
</event>
<event>
 8    1  0.1093753E+005  0.1043930E+01  0.7957747E-01            NaN
         13   -1    0    0    0    0  0.00000000000E+00  0.00000000000E+00  0.74505805969E-08  0.10566000000E+00  0.10566000000E+00 0. -1.
     999900   -1    0    0    0    0 -0.00000000000E+00 -0.00000000000E+00 -0.74505805969E-08  0.93827000000E+00  0.93827000000E+00 0. -1.
     999902    2    1    2    0    0 -0.16975367362E-01  0.17401397924E-01  0.14102867726E-02  0.10195792165E+01  0.10192883881E+01 0.  0.
     999903    2    3    3    0    0  0.10170859358E+00  0.67632884259E-01  0.37823553827E-01  0.12944719777E+00  0.20176985508E-01 0.  0.
         14    1    1    2    0    0  0.16975367362E-01 -0.17401397924E-01 -0.14102867726E-02  0.24350783469E-01  0.00000000000E+00 0. -1.
     999901    1    3    3    0    0 -0.11868396095E+00 -0.50231486335E-01 -0.36413267054E-01  0.89013201876E+00  0.88000000000E+00 0.  1.
        -11    1    4    4    0    0  0.55194146381E-02  0.17045162583E-02  0.64736758012E-02  0.86913125017E-02  0.51100000000E-03 0.  1.
         11    1    4    4    0    0  0.96189178947E-01  0.65928368001E-01  0.31349878026E-01  0.12075588527E+00  0.51100000000E-03 0. -1.
</event>
<event>
 8    1  0.1093753E+005  0.1043930E+01  0.7957747E-01            NaN
         13   -1    0    0    0    0  0.00000000000E+00  0.00000000000E+00  0.74505805969E-08  0.10566000000E+00  0.10566000000E+00 0.  1.
     999900   -1    0    0    0    0 -0.00000000000E+00 -0.00000000000E+00 -0.74505805969E-08  0.93827000000E+00  0.93827000000E+00 0. -1.
     999902    2    1    2    0    0 -0.55744037911E-02 -0.22613160888E-01 -0.37981070808E-02  0.10203322323E+01  0.10200593167E+01 0.  0.
     999903    2    3    3    0    0  0.35651341882E-01  0.14827802798E-01 -0.12295468280E+00  0.13055716106E+00  0.20891059531E-01 0.  0.
         14    1    1    2    0    0  0.55744037911E-02  0.22613160888E-01  0.37981070808E-02  0.23597767699E-01  0.00000000000E+00 0.  1.
     999901    1    3    3    0    0 -0.41225745673E-01 -0.37440963686E-01  0.11915657572E+00  0.88977507124E+00  0.88000000000E+00 0.  1.
        -11    1    4    4    0    0  0.16633642317E-01 -0.40170492950E-02 -0.47120489241E-01  0.50133984173E-01  0.51100000000E-03 0.  1.
         11    1    4    4    0    0  0.19017699565E-01  0.18844852093E-01 -0.75834193556E-01  0.80423176886E-01  0.51100000000E-03 0. -1.
</event>
<event>
 8    1  0.1093753E+005  0.1043930E+01  0.7957747E-01            NaN
         13   -1    0    0    0    0  0.00000000000E+00  0.00000000000E+00  0.74505805969E-08  0.10566000000E+00  0.10566000000E+00 0.  1.
     999900   -1    0    0    0    0 -0.00000000000E+00 -0.00000000000E+00 -0.74505805969E-08  0.93827000000E+00  0.93827000000E+00 0.  1.
     999902    2    1    2    0    0 -0.16886885643E-01  0.16213184742E-01  0.48605124407E-02  0.10200206117E+01  0.10197403540E+01 0.  0.
     999903    2    3    3    0    0 -0.35464653689E-01 -0.21201761107E-03 -0.12376371905E+00  0.13032453235E+00  0.20229655653E-01 0.  0.
         14    1    1    2    0    0  0.16886885643E-01 -0.16213184742E-01 -0.48605124407E-02  0.23909388269E-01  0.00000000000E+00 0. -1.
     999901    1    3    3    0    0  0.18577768046E-01  0.16425202353E-01  0.12862423149E+00  0.88969607938E+00  0.88000000000E+00 0. -1.
        -11    1    4    4    0    0 -0.79164897577E-02  0.50270980874E-02 -0.59083869603E-01  0.59825640770E-01  0.51100000000E-03 0.  1.
         11    1    4    4    0    0 -0.27548163931E-01 -0.52391156984E-02 -0.64679849443E-01  0.70498891582E-01  0.51100000000E-03 0. -1.
</event>
<event>
 8    1  0.1093753E+005  0.1043930E+01  0.7957747E-01            NaN
         13   -1    0    0    0    0  0.00000000000E+00  0.00000000000E+00  0.74505805969E-08  0.10566000000E+00  0.10566000000E+00 0. -1.
     999900   -1    0    0    0    0 -0.00000000000E+00 -0.00000000000E+00 -0.74505805969E-08  0.93827000000E+00  0.93827000000E+00 0.  1.
     999902    2    1    2    0    0 -0.73100366690E-02  0.11466145487E-01  0.20728748739E-01  0.10191390712E+01  0.10188375024E+01 0.  0.
     999903    2    3    3    0    0 -0.35257411373E-01 -0.47387511098E-01  0.11599228688E+00  0.13160318437E+00  0.19404284433E-01 0.  0.
         14    1    1    2    0    0  0.73100366690E-02 -0.11466145487E-01 -0.20728748739E-01  0.24790928839E-01  0.00000000000E+00 0.  1.
     999901    1    3    3    0    0  0.27947374704E-01  0.58853656585E-01 -0.95263538145E-01  0.88753588679E+00  0.88000000000E+00 0.  1.
        -11    1    4    4    0    0 -0.24596401578E-01 -0.25046166303E-01  0.49795502931E-01  0.60927388342E-01  0.51100000000E-03 0. -1.
         11    1    4    4    0    0 -0.10661009795E-01 -0.22341344795E-01  0.66196783953E-01  0.70675796026E-01  0.51100000000E-03 0.  1.
</event>
<event>
 8    1  0.1093753E+005  0.1043930E+01  0.7957747E-01            NaN
         13   -1    0    0    0    0  0.00000000000E+00  0.00000000000E+00  0.74505805969E-08  0.10566000000E+00  0.10566000000E+00 0.  1.
     999900   -1    0    0    0    0 -0.00000000000E+00 -0.00000000000E+00 -0.74505805969E-08  0.93827000000E+00  0.93827000000E+00 0.  1.
     999902    2    1    2    0    0 -0.11357624037E-01 -0.19829367924E-01 -0.69438645385E-02  0.10200466018E+01  0.10197669602E+01 0.  0.
     999903    2    3    3    0    0 -0.82880540549E-01  0.33591185875E-01 -0.93875848825E-01  0.13126853440E+00  0.20523190805E-01 0.  0.
         14    1    1    2    0    0  0.11357624037E-01  0.19829367924E-01  0.69438645385E-02  0.23883398225E-01  0.00000000000E+00 0. -1.
     999901    1    3    3    0    0  0.71522916512E-01 -0.53420553799E-01  0.86931984287E-01  0.88877806737E+00  0.88000000000E+00 0. -1.
        -11    1    4    4    0    0 -0.69620074353E-01  0.20172532872E-01 -0.69302689343E-01  0.10028464342E+00  0.51100000000E-03 0. -1.
         11    1    4    4    0    0 -0.13260466196E-01  0.13418653003E-01 -0.24573159482E-01  0.30983890977E-01  0.51100000000E-03 0.  1.
</event>
<event>
 8    1  0.1093753E+005  0.1043930E+01  0.7957747E-01            NaN
         13   -1    0    0    0    0  0.00000000000E+00  0.00000000000E+00  0.74505805969E-08  0.10566000000E+00  0.10566000000E+00 0. -1.
     999900   -1    0    0    0    0 -0.00000000000E+00 -0.00000000000E+00 -0.74505805969E-08  0.93827000000E+00  0.93827000000E+00 0.  1.
     999902    2    1    2    0    0  0.36137376614E-02  0.19709216126E-01 -0.14749371530E-01  0.10190491588E+01  0.10187453714E+01 0.  0.
     999903    2    3    3    0    0  0.39105990645E-01 -0.41263956558E-01 -0.11574911469E+00  0.13046693076E+00  0.19793176956E-01 0.  0.
         14    1    1    2    0    0 -0.36137376614E-02 -0.19709216126E-01  0.14749371530E-01  0.24880841238E-01  0.00000000000E+00 0. -1.
     999901    1    3    3    0    0 -0.35492252983E-01  0.60973172684E-01  0.10099974316E+00  0.88858222801E+00  0.88000000000E+00 0. -1.
        -11    1    4    4    0    0  0.39738411260E-02 -0.17171673747E-02 -0.25389473192E-01  0.25760950042E-01  0.51100000000E-03 0.  1.
         11    1    4    4    0    0  0.35132149519E-01 -0.39546789183E-01 -0.90359641500E-01  0.10470598071E+00  0.51100000000E-03 0. -1.
</event>
<event>
 8    1  0.1093753E+005  0.1043930E+01  0.7957747E-01            NaN
         13   -1    0    0    0    0  0.00000000000E+00  0.00000000000E+00  0.74505805969E-08  0.10566000000E+00  0.10566000000E+00 0.  1.
     999900   -1    0    0    0    0 -0.00000000000E+00 -0.00000000000E+00 -0.74505805969E-08  0.93827000000E+00  0.93827000000E+00 0.  1.
     999902    2    1    2    0    0 -0.56421715629E-02 -0.24020477862E-01 -0.30488126007E-02  0.10190681273E+01  0.10187648086E+01 0.  0.
     999903    2    3    3    0    0 -0.45828852069E-02  0.53906964062E-01 -0.11494958660E+00  0.12856512812E+00  0.19713475062E-01 0.  0.
         14    1    1    2    0    0  0.56421715629E-02  0.24020477862E-01  0.30488126007E-02  0.24861872715E-01  0.00000000000E+00 0. -1.
     999901    1    3    3    0    0 -0.10592863560E-02 -0.77927441923E-01  0.11190077400E+00  0.89050299916E+00  0.88000000000E+00 0. -1.
        -11    1    4    4    0    0  0.60724375765E-03  0.21532797566E-01 -0.26026861938E-01  0.33788885441E-01  0.51100000000E-03 0.  1.
         11    1    4    4    0    0 -0.51901289646E-02  0.32374166496E-01 -0.88922724661E-01  0.94776242683E-01  0.51100000000E-03 0. -1.
</event>
<event>
 8    1  0.1093753E+005  0.1043930E+01  0.7957747E-01            NaN
         13   -1    0    0    0    0  0.00000000000E+00  0.00000000000E+00  0.74505805969E-08  0.10566000000E+00  0.10566000000E+00 0. -1.
     999900   -1    0    0    0    0 -0.00000000000E+00 -0.00000000000E+00 -0.74505805969E-08  0.93827000000E+00  0.93827000000E+00 0.  1.
     999902    2    1    2    0    0 -0.19833399712E-01 -0.58841883560E-02  0.10047238260E-01  0.10209314258E+01  0.10206723479E+01 0.  0.
     999903    2    3    3    0    0  0.36519681621E-01 -0.11459603483E+00  0.49427392158E-01  0.13158068971E+00  0.20111500794E-01 0.  0.
         14    1    1    2    0    0  0.19833399712E-01  0.58841883560E-02 -0.10047238260E-01  0.22998574161E-01  0.00000000000E+00 0.  1.
     999901    1    3    3    0    0 -0.56353081334E-01  0.10871184647E+00 -0.39380153898E-01  0.88935073613E+00  0.88000000000E+00 0.  1.
        -11    1    4    4    0    0  0.13420506439E-01 -0.61590493845E-01  0.17015713715E-01  0.65293909052E-01  0.51100000000E-03 0.  1.
         11    1    4    4    0    0  0.23099175183E-01 -0.53005540983E-01  0.32411678443E-01  0.66286780654E-01  0.51100000000E-03 0. -1.
</event>
<event>
 8    1  0.1093753E+005  0.1043930E+01  0.7957747E-01            NaN
         13   -1    0    0    0    0  0.00000000000E+00  0.00000000000E+00  0.74505805969E-08  0.10566000000E+00  0.10566000000E+00 0. -1.
     999900   -1    0    0    0    0 -0.00000000000E+00 -0.00000000000E+00 -0.74505805969E-08  0.93827000000E+00  0.93827000000E+00 0.  1.
     999902    2    1    2    0    0 -0.12840910374E-01  0.19995861212E-01 -0.38560550743E-04  0.10201660582E+01  0.10198892397E+01 0.  0.
     999903    2    3    3    0    0  0.36528315593E-01 -0.88699163553E-01  0.83534423928E-01  0.12818154450E+00  0.15831895454E-01 0.  0.
         14    1    1    2    0    0  0.12840910374E-01 -0.19995861212E-01  0.38560550743E-04  0.23763941839E-01  0.00000000000E+00 0.  1.
     999901    1    3    3    0    0 -0.49369225967E-01  0.10869502476E+00 -0.83572984479E-01  0.89198451366E+00  0.88000000000E+00 0.  1.
        -11    1    4    4    0    0  0.24330208103E-01 -0.43854302396E-01  0.50399940496E-01  0.71102559644E-01  0.51100000000E-03 0.  1.
         11    1    4    4    0    0  0.12198107489E-01 -0.44844861157E-01  0.33134483432E-01  0.57078984853E-01  0.51100000000E-03 0. -1.
</event>
<event>
 7    1  0.1093753E+005  0.1043930E+01  0.7957747E-01            NaN
         13   -1    0    0    0    0  0.00000000000E+00  0.00000000000E+00  0.74505805969E-08  0.10566000000E+00  0.10566000000E+00 0.  1.
     999900   -1    0    0    0    0 -0.00000000000E+00 -0.00000000000E+00 -0.74505805969E-08  0.93827000000E+00  0.93827000000E+00 0.  1.
     999902    2    1    2    0    0  0.11497446135E-01 -0.21943153275E-01  0.75149238744E-03  0.10191457715E+01  0.10188443677E+01 0.  0.
         14    1    1    2    0    0 -0.11497446135E-01  0.21943153275E-01 -0.75149238744E-03  0.24784228535E-01  0.00000000000E+00 0.  1.
     999901    1    3    3    0    0  0.64471602046E-01  0.50410488858E-01 -0.58295949499E-02  0.88381660373E+00  0.88000000000E+00 0. -1.
        -11    1    3    3    0    0 -0.67413334027E-01 -0.73463272084E-01  0.33142688165E-01  0.10507192227E+00  0.51100000000E-03 0. -1.
         11    1    3    3    0    0  0.14439178117E-01  0.11096299509E-02 -0.26561600828E-01  0.30257245460E-01  0.51100000000E-03 0.  1.
</event>
<event>
 8    1  0.1093753E+005  0.1043930E+01  0.7957747E-01            NaN
         13   -1    0    0    0    0  0.00000000000E+00  0.00000000000E+00  0.74505805969E-08  0.10566000000E+00  0.10566000000E+00 0.  1.
     999900   -1    0    0    0    0 -0.00000000000E+00 -0.00000000000E+00 -0.74505805969E-08  0.93827000000E+00  0.93827000000E+00 0. -1.
     999902    2    1    2    0    0  0.54114449187E-02 -0.13283922068E-01  0.18961423448E-01  0.10201543423E+01  0.10198772476E+01 0.  0.
     999903    2    3    3    0    0  0.18210092197E-01  0.11985684118E+00 -0.36762946490E-01  0.12830487424E+00  0.20331175187E-01 0.  0.
         14    1    1    2    0    0 -0.54114449187E-02  0.13283922068E-01 -0.18961423448E-01  0.23775657736E-01  0.00000000000E+00 0. -1.
     999901    1    3    3    0    0 -0.12798647279E-01 -0.13314076324E+00  0.55724369938E-01  0.89184946802E+00  0.88000000000E+00 0. -1.
        -11    1    4    4    0    0  0.41252924503E-02  0.14565031655E-01 -0.11747681390E-01  0.19168393880E-01  0.51100000000E-03 0.  1.
         11    1    4    4    0    0  0.14084799747E-01  0.10529180952E+00 -0.25015265100E-01  0.10913648036E+00  0.51100000000E-03 0. -1.
</event>
<event>
 8    1  0.1093753E+005  0.1043930E+01  0.7957747E-01            NaN
         13   -1    0    0    0    0  0.00000000000E+00  0.00000000000E+00  0.74505805969E-08  0.10566000000E+00  0.10566000000E+00 0. -1.
     999900   -1    0    0    0    0 -0.00000000000E+00 -0.00000000000E+00 -0.74505805969E-08  0.93827000000E+00  0.93827000000E+00 0. -1.
     999902    2    1    2    0    0  0.66950592866E-02 -0.68765911793E-03 -0.22395944143E-01  0.10205446412E+01  0.10202766731E+01 0.  0.
     999903    2    3    3    0    0  0.12758961217E+00  0.22476602578E-01  0.83694443712E-02  0.13144476766E+00  0.20576018796E-01 0.  0.
         14    1    1    2    0    0 -0.66950592866E-02  0.68765911793E-03  0.22395944143E-01  0.23385358838E-01  0.00000000000E+00 0. -1.
     999901    1    3    3    0    0 -0.12089455288E+00 -0.23164261696E-01 -0.30765388514E-01  0.88909987350E+00  0.88000000000E+00 0. -1.
        -11    1    4    4    0    0  0.72623893991E-01  0.32022633970E-02  0.75815506015E-03  0.72700209005E-01  0.51100000000E-03 0.  1.
         11    1    4    4    0    0  0.54965718174E-01  0.19274339181E-01  0.76112893110E-02  0.58744558652E-01  0.51100000000E-03 0. -1.
</event>
<event>
 8    1  0.1093753E+005  0.1043930E+01  0.7957747E-01            NaN
         13   -1    0    0    0    0  0.00000000000E+00  0.00000000000E+00  0.74505805969E-08  0.10566000000E+00  0.10566000000E+00 0. -1.
     999900   -1    0    0    0    0 -0.00000000000E+00 -0.00000000000E+00 -0.74505805969E-08  0.93827000000E+00  0.93827000000E+00 0. -1.
     999902    2    1    2    0    0  0.41179008427E-02  0.12044547853E-01 -0.19477665826E-01  0.10206618306E+01  0.10203965723E+01 0.  0.
     999903    2    3    3    0    0 -0.64969848356E-02 -0.12646923243E+00 -0.19144869988E-01  0.12976405092E+00  0.20868763718E-01 0.  0.
         14    1    1    2    0    0 -0.41179008427E-02 -0.12044547853E-01  0.19477665826E-01  0.23268169382E-01  0.00000000000E+00 0. -1.
     999901    1    3    3    0    0  0.10614885678E-01  0.13851378029E+00 -0.33279583853E-03  0.89089777970E+00  0.88000000000E+00 0. -1.
        -11    1    4    4    0    0 -0.13310000553E-01 -0.10330865558E+00 -0.16688132913E-01  0.10549212925E+00  0.51100000000E-03 0. -1.
         11    1    4    4    0    0  0.68130157172E-02 -0.23160576849E-01 -0.24567370749E-02  0.24271921663E-01  0.51100000000E-03 0.  1.
</event>
<event>
 8    1  0.1093753E+005  0.1043930E+01  0.7957747E-01            NaN
         13   -1    0    0    0    0  0.00000000000E+00  0.00000000000E+00  0.74505805969E-08  0.10566000000E+00  0.10566000000E+00 0. -1.
     999900   -1    0    0    0    0 -0.00000000000E+00 -0.00000000000E+00 -0.74505805969E-08  0.93827000000E+00  0.93827000000E+00 0.  1.
     999902    2    1    2    0    0 -0.31815276506E-03 -0.51720388581E-02 -0.22324178960E-01  0.10210123175E+01  0.10207550794E+01 0.  0.
     999903    2    3    3    0    0  0.84342775916E-01 -0.66524711001E-01 -0.76025964995E-01  0.13319730009E+00  0.20550726891E-01 0.  0.
         14    1    1    2    0    0  0.31815276506E-03  0.51720388581E-02  0.22324178960E-01  0.22917682548E-01  0.00000000000E+00 0.  1.
     999901    1    3    3    0    0 -0.84660928681E-01  0.61352672143E-01  0.53701786035E-01  0.88781501736E+00  0.88000000000E+00 0. -1.
        -11    1    4    4    0    0  0.32772026240E-01 -0.27413522239E-01 -0.42651831996E-01  0.60373394795E-01  0.51100000000E-03 0.  1.
         11    1    4    4    0    0  0.51570749676E-01 -0.39111188761E-01 -0.33374132999E-01  0.72823905298E-01  0.51100000000E-03 0. -1.
</event>
<event>
 7    1  0.1093753E+005  0.1043930E+01  0.7957747E-01            NaN
         13   -1    0    0    0    0  0.00000000000E+00  0.00000000000E+00  0.74505805969E-08  0.10566000000E+00  0.10566000000E+00 0. -1.
     999900   -1    0    0    0    0 -0.00000000000E+00 -0.00000000000E+00 -0.74505805969E-08  0.93827000000E+00  0.93827000000E+00 0. -1.
     999903    2    1    2    0    0  0.27122389955E-01  0.67876882006E-01  0.73161411122E-01  0.10507646505E+00  0.18589682167E-01 0.  0.
         14    1    1    2    0    0  0.24655017574E-01  0.39949255309E-01  0.55915487456E-02  0.47276614818E-01  0.00000000000E+00 0. -1.
     999901    1    1    2    0    0 -0.51777407529E-01 -0.10782613731E+00 -0.78752959867E-01  0.89157692013E+00  0.88000000000E+00 0. -1.
        -11    1    3    3    0    0  0.14737008116E-01  0.19977554448E-01  0.16299239105E-01  0.29701993306E-01  0.51100000000E-03 0. -1.
         11    1    3    3    0    0  0.12385381840E-01  0.47899327558E-01  0.56862172016E-01  0.75374471747E-01  0.51100000000E-03 0.  1.
</event>
<event>
 8    1  0.1093753E+005  0.1043930E+01  0.7957747E-01            NaN
         13   -1    0    0    0    0  0.00000000000E+00  0.00000000000E+00  0.74505805969E-08  0.10566000000E+00  0.10566000000E+00 0. -1.
     999900   -1    0    0    0    0 -0.00000000000E+00 -0.00000000000E+00 -0.74505805969E-08  0.93827000000E+00  0.93827000000E+00 0.  1.
     999902    2    1    2    0    0 -0.21430493929E-01 -0.57206980982E-02  0.90058852653E-02  0.10199905258E+01  0.10197095539E+01 0.  0.
     999903    2    3    3    0    0 -0.44857818250E-01  0.11777204726E+00  0.28875305946E-01  0.13083694424E+00  0.20051027656E-01 0.  0.
         14    1    1    2    0    0  0.21430493929E-01  0.57206980982E-02 -0.90058852653E-02  0.23939474225E-01  0.00000000000E+00 0. -1.
     999901    1    3    3    0    0  0.23427324321E-01 -0.12349274536E+00 -0.19869420681E-01  0.88915358154E+00  0.88000000000E+00 0.  1.
        -11    1    4    4    0    0 -0.33753054738E-02  0.33453196357E-01  0.68223820796E-02  0.34312024886E-01  0.51100000000E-03 0.  1.
         11    1    4    4    0    0 -0.41482512776E-01  0.84318850904E-01  0.22052923867E-01  0.96524919353E-01  0.51100000000E-03 0. -1.
</event>
<event>
 8    1  0.1093753E+005  0.1043930E+01  0.7957747E-01            NaN
         13   -1    0    0    0    0  0.00000000000E+00  0.00000000000E+00  0.74505805969E-08  0.10566000000E+00  0.10566000000E+00 0.  1.
     999900   -1    0    0    0    0 -0.00000000000E+00 -0.00000000000E+00 -0.74505805969E-08  0.93827000000E+00  0.93827000000E+00 0. -1.
     999902    2    1    2    0    0  0.22131770388E-01 -0.16106543233E-02 -0.41952539850E-02  0.10213466073E+01  0.10210969017E+01 0.  0.
     999903    2    3    3    0    0  0.81139384349E-01  0.81199929799E-01 -0.64965866332E-01  0.13340935806E+00  0.20011615047E-01 0.  0.
         14    1    1    2    0    0 -0.22131770388E-01  0.16106543233E-02  0.41952539850E-02  0.22583392656E-01  0.00000000000E+00 0.  1.
     999901    1    3    3    0    0 -0.59007613961E-01 -0.82810584122E-01  0.60770612347E-01  0.88793724929E+00  0.88000000000E+00 0. -1.
        -11    1    4    4    0    0  0.28595004576E-01  0.41777529521E-01 -0.32189817536E-01  0.59995680958E-01  0.51100000000E-03 0.  1.
         11    1    4    4    0    0  0.52544379773E-01  0.39422400278E-01 -0.32776048796E-01  0.73413677098E-01  0.51100000000E-03 0. -1.
</event>
<event>
 8    1  0.1093753E+005  0.1043930E+01  0.7957747E-01            NaN
         13   -1    0    0    0    0  0.00000000000E+00  0.00000000000E+00  0.74505805969E-08  0.10566000000E+00  0.10566000000E+00 0. -1.
     999900   -1    0    0    0    0 -0.00000000000E+00 -0.00000000000E+00 -0.74505805969E-08  0.93827000000E+00  0.93827000000E+00 0.  1.
     999902    2    1    2    0    0  0.23195824147E-01  0.56102984388E-02 -0.23518813752E-02  0.10199497362E+01  0.10196677946E+01 0.  0.
     999903    2    3    3    0    0 -0.93726984925E-01 -0.57790146911E-01 -0.61625558052E-01  0.12798340919E+00  0.21391466521E-01 0.  0.
         14    1    1    2    0    0 -0.23195824147E-01 -0.56102984388E-02  0.23518813752E-02  0.23980263810E-01  0.00000000000E+00 0. -1.
     999901    1    3    3    0    0  0.11692280907E+00  0.63400445350E-01  0.59273676677E-01  0.89196632700E+00  0.88000000000E+00 0. -1.
        -11    1    4    4    0    0 -0.60167779686E-01 -0.40371564836E-01 -0.29022756630E-01  0.78055150266E-01  0.51100000000E-03 0. -1.
         11    1    4    4    0    0 -0.33559205239E-01 -0.17418582075E-01 -0.32602801422E-01  0.49928258925E-01  0.51100000000E-03 0.  1.
</event>
<event>
 8    1  0.1093753E+005  0.1043930E+01  0.7957747E-01            NaN
         13   -1    0    0    0    0  0.00000000000E+00  0.00000000000E+00  0.74505805969E-08  0.10566000000E+00  0.10566000000E+00 0.  1.
     999900   -1    0    0    0    0 -0.00000000000E+00 -0.00000000000E+00 -0.74505805969E-08  0.93827000000E+00  0.93827000000E+00 0.  1.
     999902    2    1    2    0    0  0.22813416993E-01 -0.77965951628E-02  0.51322635877E-02  0.10192808820E+01  0.10189827954E+01 0.  0.
     999903    2    3    3    0    0 -0.96939441288E-01  0.76496483499E-01 -0.20853051078E-01  0.12680045821E+00  0.19863010823E-01 0.  0.
         14    1    1    2    0    0 -0.22813416993E-01  0.77965951628E-02 -0.51322635877E-02  0.24649118049E-01  0.00000000000E+00 0.  1.
     999901    1    3    3    0    0  0.11975285828E+00 -0.84293078662E-01  0.25985314666E-01  0.89248042374E+00  0.88000000000E+00 0. -1.
        -11    1    4    4    0    0 -0.70587126349E-01  0.50340732749E-01 -0.63387461000E-02  0.86931999880E-01  0.51100000000E-03 0.  1.
         11    1    4    4    0    0 -0.26352314939E-01  0.26155750750E-01 -0.14514304978E-01  0.39868458334E-01  0.51100000000E-03 0. -1.
</event>
<event>
 8    1  0.1093753E+005  0.1043930E+01  0.7957747E-01            NaN
         13   -1    0    0    0    0  0.00000000000E+00  0.00000000000E+00  0.74505805969E-08  0.10566000000E+00  0.10566000000E+00 0. -1.
     999900   -1    0    0    0    0 -0.00000000000E+00 -0.00000000000E+00 -0.74505805969E-08  0.93827000000E+00  0.93827000000E+00 0.  1.
     999902    2    1    2    0    0 -0.34497391040E-02  0.62145515553E-02 -0.10235258095E-01  0.10314687858E+01  0.10313935109E+01 0.  0.
     999903    2    3    3    0    0  0.38327668041E-01 -0.13242594585E+00 -0.89240328481E-02  0.13963457555E+00  0.20310959032E-01 0.  0.
         14    1    1    2    0    0  0.34497391040E-02 -0.62145515553E-02  0.10235258095E-01  0.12461214194E-01  0.00000000000E+00 0. -1.
     999901    1    3    3    0    0 -0.41777407145E-01  0.13864049740E+00 -0.13112252473E-02  0.89183421025E+00  0.88000000000E+00 0.  1.
        -11    1    4    4    0    0  0.94679252273E-02 -0.32942076998E-01 -0.11079546745E-01  0.36025539859E-01  0.51100000000E-03 0.  1.
         11    1    4    4    0    0  0.28859742814E-01 -0.99483868847E-01  0.21555138965E-02  0.10360903569E+00  0.51100000000E-03 0. -1.
</event>
<event>
 8    1  0.1093753E+005  0.1043930E+01  0.7957747E-01            NaN
         13   -1    0    0    0    0  0.00000000000E+00  0.00000000000E+00  0.74505805969E-08  0.10566000000E+00  0.10566000000E+00 0. -1.
     999900   -1    0    0    0    0 -0.00000000000E+00 -0.00000000000E+00 -0.74505805969E-08  0.93827000000E+00  0.93827000000E+00 0.  1.
     999902    2    1    2    0    0  0.44020790662E-03  0.25730510756E-01  0.14956093473E-02  0.10181523001E+01  0.10178259263E+01 0.  0.
     999903    2    3    3    0    0 -0.98283234976E-01 -0.38717195719E-01  0.68918381886E-01  0.12773349113E+00  0.20186279316E-01 0.  0.
         14    1    1    2    0    0 -0.44020790662E-03 -0.25730510756E-01 -0.14956093473E-02  0.25777699938E-01  0.00000000000E+00 0.  1.
     999901    1    3    3    0    0  0.98723442882E-01  0.64447706475E-01 -0.67422772539E-01  0.89041880893E+00  0.88000000000E+00 0.  1.
        -11    1    4    4    0    0 -0.70408664698E-01 -0.31424237152E-01  0.59576864640E-01  0.97439861794E-01  0.51100000000E-03 0.  1.
         11    1    4    4    0    0 -0.27874570277E-01 -0.72929585668E-02  0.93415172461E-02  0.30293629335E-01  0.51100000000E-03 0. -1.
</event>
<event>
 8    1  0.1093753E+005  0.1043930E+01  0.7957747E-01            NaN
         13   -1    0    0    0    0  0.00000000000E+00  0.00000000000E+00  0.74505805969E-08  0.10566000000E+00  0.10566000000E+00 0.  1.
     999900   -1    0    0    0    0 -0.00000000000E+00 -0.00000000000E+00 -0.74505805969E-08  0.93827000000E+00  0.93827000000E+00 0.  1.
     999902    2    1    2    0    0  0.45261959164E-02 -0.23019806659E-01 -0.32313539526E-02  0.10202479478E+01  0.10199730562E+01 0.  0.
     999903    2    3    3    0    0  0.99581692105E-01  0.60840054137E-01 -0.53226789297E-01  0.12976068390E+00  0.19665156945E-01 0.  0.
         14    1    1    2    0    0 -0.45261959164E-02  0.23019806659E-01  0.32313539526E-02  0.23682052202E-01  0.00000000000E+00 0. -1.
     999901    1    3    3    0    0 -0.95055496189E-01 -0.83859860797E-01  0.49995435344E-01  0.89048726390E+00  0.88000000000E+00 0. -1.
        -11    1    4    4    0    0  0.37296096935E-01  0.14713303724E-01 -0.25113123272E-01  0.47311840321E-01  0.51100000000E-03 0.  1.
         11    1    4    4    0    0  0.62285595170E-01  0.46126750413E-01 -0.28113666025E-01  0.82448843580E-01  0.51100000000E-03 0. -1.
</event>
<event>
 8    1  0.1093753E+005  0.1043930E+01  0.7957747E-01            NaN
         13   -1    0    0    0    0  0.00000000000E+00  0.00000000000E+00  0.74505805969E-08  0.10566000000E+00  0.10566000000E+00 0. -1.
     999900   -1    0    0    0    0 -0.00000000000E+00 -0.00000000000E+00 -0.74505805969E-08  0.93827000000E+00  0.93827000000E+00 0.  1.
     999902    2    1    2    0    0 -0.16815094970E-01  0.42031473464E-02 -0.16132608191E-01  0.10202514250E+01  0.10199766151E+01 0.  0.
     999903    2    3    3    0    0  0.12067203723E+00  0.87121714566E-03  0.37659777153E-01  0.12794686154E+00  0.19739325550E-01 0.  0.
         14    1    1    2    0    0  0.16815094970E-01 -0.42031473464E-02  0.16132608191E-01  0.23678574989E-01  0.00000000000E+00 0. -1.
     999901    1    3    3    0    0 -0.13748713220E+00  0.33319302008E-02 -0.53792385343E-01  0.89230456348E+00  0.88000000000E+00 0.  1.
        -11    1    4    4    0    0  0.11408104866E+00 -0.25414875297E-02  0.31748950807E-01  0.11844493159E+00  0.51100000000E-03 0.  1.
         11    1    4    4    0    0  0.65909885731E-02  0.34127046753E-02  0.59108263452E-02  0.95019299437E-02  0.51100000000E-03 0. -1.
</event>
<event>
 8    1  0.1093753E+005  0.1043930E+01  0.7957747E-01            NaN
         13   -1    0    0    0    0  0.00000000000E+00  0.00000000000E+00  0.74505805969E-08  0.10566000000E+00  0.10566000000E+00 0.  1.
     999900   -1    0    0    0    0 -0.00000000000E+00 -0.00000000000E+00 -0.74505805969E-08  0.93827000000E+00  0.93827000000E+00 0.  1.
     999902    2    1    2    0    0 -0.41454013613E-02  0.22660267350E-01  0.49065910455E-02  0.10203769385E+01  0.10201050681E+01 0.  0.
     999903    2    3    3    0    0  0.20699745590E-01  0.12850517483E+00  0.20048694940E-01  0.13355694041E+00  0.22213661051E-01 0.  0.
         14    1    1    2    0    0  0.41454013613E-02 -0.22660267350E-01 -0.49065910455E-02  0.23553061468E-01  0.00000000000E+00 0. -1.
     999901    1    3    3    0    0 -0.24845146952E-01 -0.10584490748E+00 -0.15142103895E-01  0.88681999813E+00  0.88000000000E+00 0.  1.
        -11    1    4    4    0    0  0.43582177873E-02  0.38539012324E-01  0.16203429229E-01  0.42036433876E-01  0.51100000000E-03 0.  1.
         11    1    4    4    0    0  0.16341527803E-01  0.89966162502E-01  0.38452657114E-02  0.91520506530E-01  0.51100000000E-03 0. -1.
</event>
<event>
 8    1  0.1093753E+005  0.1043930E+01  0.7957747E-01            NaN
         13   -1    0    0    0    0  0.00000000000E+00  0.00000000000E+00  0.74505805969E-08  0.10566000000E+00  0.10566000000E+00 0.  1.
     999900   -1    0    0    0    0 -0.00000000000E+00 -0.00000000000E+00 -0.74505805969E-08  0.93827000000E+00  0.93827000000E+00 0.  1.
     999902    2    1    2    0    0  0.23255513450E-01 -0.59562633264E-02  0.57512787880E-02  0.10192445147E+01  0.10189455371E+01 0.  0.
     999903    2    3    3    0    0 -0.11072400250E+00  0.53057820985E-01 -0.23956836368E-01  0.12665516622E+00  0.19815751933E-01 0.  0.
         14    1    1    2    0    0 -0.23255513450E-01  0.59562633264E-02 -0.57512787880E-02  0.24685485337E-01  0.00000000000E+00 0.  1.
     999901    1    3    3    0    0  0.13397951595E+00 -0.59014084311E-01  0.29708115156E-01  0.89258934844E+00  0.88000000000E+00 0. -1.
        -11    1    4    4    0    0 -0.27030269279E-01  0.11374514512E-01  0.26292284276E-02  0.29448072956E-01  0.51100000000E-03 0. -1.
         11    1    4    4    0    0 -0.83693733223E-01  0.41683306472E-01 -0.26586064795E-01  0.97207093268E-01  0.51100000000E-03 0.  1.
</event>
<event>
 8    1  0.1093753E+005  0.1043930E+01  0.7957747E-01            NaN
         13   -1    0    0    0    0  0.00000000000E+00  0.00000000000E+00  0.74505805969E-08  0.10566000000E+00  0.10566000000E+00 0.  1.
     999900   -1    0    0    0    0 -0.00000000000E+00 -0.00000000000E+00 -0.74505805969E-08  0.93827000000E+00  0.93827000000E+00 0. -1.
     999902    2    1    2    0    0  0.77512529272E-02  0.31307831512E-02 -0.22264415647E-01  0.10201479074E+01  0.10198706609E+01 0.  0.
     999903    2    3    3    0    0  0.18460371067E-01 -0.81442072251E-01  0.94612910210E-01  0.12833651343E+00  0.23346551543E-01 0.  0.
         14    1    1    2    0    0 -0.77512529272E-02 -0.31307831512E-02  0.22264415647E-01  0.23782092616E-01  0.00000000000E+00 0.  1.
     999901    1    3    3    0    0 -0.10709118140E-01  0.84572855402E-01 -0.11687732586E+00  0.89181139395E+00  0.88000000000E+00 0. -1.
        -11    1    4    4    0    0  0.22228738128E-01 -0.72396393102E-01  0.75981574417E-01  0.10727914664E+00  0.51100000000E-03 0.  1.
         11    1    4    4    0    0 -0.37683670605E-02 -0.90456791488E-02  0.18631335793E-01  0.21057366787E-01  0.51100000000E-03 0. -1.
</event>
<event>
 8    1  0.1093753E+005  0.1043930E+01  0.7957747E-01            NaN
         13   -1    0    0    0    0  0.00000000000E+00  0.00000000000E+00  0.74505805969E-08  0.10566000000E+00  0.10566000000E+00 0. -1.
     999900   -1    0    0    0    0 -0.00000000000E+00 -0.00000000000E+00 -0.74505805969E-08  0.93827000000E+00  0.93827000000E+00 0. -1.
     999902    2    1    2    0    0  0.22548836088E-01 -0.70998841323E-02  0.41032843180E-02  0.10199363486E+01  0.10196540884E+01 0.  0.
     999903    2    3    3    0    0  0.63379925245E-01 -0.11320528118E+00 -0.18309887430E-01  0.13233965903E+00  0.18603299845E-01 0.  0.
         14    1    1    2    0    0 -0.22548836088E-01  0.70998841323E-02 -0.41032843180E-02  0.23993651364E-01  0.00000000000E+00 0.  1.
     999901    1    3    3    0    0 -0.40831089157E-01  0.10610539704E+00  0.22413171748E-01  0.88759668960E+00  0.88000000000E+00 0. -1.
        -11    1    4    4    0    0  0.36979588505E-01 -0.65199573795E-01 -0.19805812136E-01  0.77530675893E-01  0.51100000000E-03 0.  1.
         11    1    4    4    0    0  0.26400336740E-01 -0.48005707382E-01  0.14959247061E-02  0.54808983141E-01  0.51100000000E-03 0. -1.
</event>
<event>
 8    1  0.1093753E+005  0.1043930E+01  0.7957747E-01            NaN
         13   -1    0    0    0    0  0.00000000000E+00  0.00000000000E+00  0.74505805969E-08  0.10566000000E+00  0.10566000000E+00 0.  1.
     999900   -1    0    0    0    0 -0.00000000000E+00 -0.00000000000E+00 -0.74505805969E-08  0.93827000000E+00  0.93827000000E+00 0. -1.
     999902    2    1    2    0    0  0.21661193678E-01 -0.71373974577E-02  0.64277621096E-02  0.10202347287E+01  0.10199595266E+01 0.  0.
     999903    2    3    3    0    0 -0.75268929799E-01 -0.83116877090E-01  0.62210933965E-01  0.12990889377E+00  0.20791664816E-01 0.  0.
         14    1    1    2    0    0 -0.21661193678E-01  0.71373974577E-02 -0.64277621096E-02  0.23695271253E-01  0.00000000000E+00 0. -1.
     999901    1    3    3    0    0  0.96930123477E-01  0.75979479632E-01 -0.55783171856E-01  0.89032583498E+00  0.88000000000E+00 0. -1.
        -11    1    4    4    0    0 -0.32478275688E-01 -0.48462183863E-01  0.25138655559E-01  0.63526646226E-01  0.51100000000E-03 0.  1.
         11    1    4    4    0    0 -0.42790654111E-01 -0.34654693227E-01  0.37072278407E-01  0.66382247545E-01  0.51100000000E-03 0. -1.
</event>
<event>
 8    1  0.1093753E+005  0.1043930E+01  0.7957747E-01            NaN
         13   -1    0    0    0    0  0.00000000000E+00  0.00000000000E+00  0.74505805969E-08  0.10566000000E+00  0.10566000000E+00 0.  1.
     999900   -1    0    0    0    0 -0.00000000000E+00 -0.00000000000E+00 -0.74505805969E-08  0.93827000000E+00  0.93827000000E+00 0.  1.
     999902    2    1    2    0    0  0.13583053880E-01  0.19313470225E-01  0.88030716794E-02  0.10187307231E+01  0.10184190113E+01 0.  0.
     999903    2    3    3    0    0 -0.10589980336E+00  0.25586710251E-01 -0.63345502495E-01  0.12770831965E+00  0.20671577785E-01 0.  0.
         14    1    1    2    0    0 -0.13583053880E-01 -0.19313470225E-01 -0.88030716794E-02  0.25199276891E-01  0.00000000000E+00 0.  1.
     999901    1    3    3    0    0  0.11948285724E+00 -0.62732400262E-02  0.72148574174E-01  0.89102240346E+00  0.88000000000E+00 0. -1.
        -11    1    4    4    0    0 -0.35559039013E-01  0.27193722373E-02 -0.11856796665E-01  0.37585701923E-01  0.51100000000E-03 0. -1.
         11    1    4    4    0    0 -0.70340764346E-01  0.22867338013E-01 -0.51488705830E-01  0.90122617725E-01  0.51100000000E-03 0.  1.
</event>
<event>
 8    1  0.1093753E+005  0.1043930E+01  0.7957747E-01            NaN
         13   -1    0    0    0    0  0.00000000000E+00  0.00000000000E+00  0.74505805969E-08  0.10566000000E+00  0.10566000000E+00 0. -1.
     999900   -1    0    0    0    0 -0.00000000000E+00 -0.00000000000E+00 -0.74505805969E-08  0.93827000000E+00  0.93827000000E+00 0.  1.
     999902    2    1    2    0    0 -0.93899667084E-02  0.12606462640E-01 -0.19154703241E-01  0.10191510365E+01  0.10188497623E+01 0.  0.
     999903    2    3    3    0    0 -0.12256161109E+00  0.38490000948E-01 -0.20239217424E-01  0.13152557788E+00  0.19660188941E-01 0.  0.
         14    1    1    2    0    0  0.93899667084E-02 -0.12606462640E-01  0.19154703241E-01  0.24778963483E-01  0.00000000000E+00 0. -1.
     999901    1    3    3    0    0  0.11317164438E+00 -0.25883538308E-01  0.10845141834E-02  0.88762545864E+00  0.88000000000E+00 0.  1.
        -11    1    4    4    0    0 -0.19616217545E-01  0.22331175601E-02 -0.93132834602E-02  0.21835319430E-01  0.51100000000E-03 0. -1.
         11    1    4    4    0    0 -0.10294539354E+00  0.36256883388E-01 -0.10925933964E-01  0.10969025845E+00  0.51100000000E-03 0.  1.
</event>
<event>
 8    1  0.1093753E+005  0.1043930E+01  0.7957747E-01            NaN
         13   -1    0    0    0    0  0.00000000000E+00  0.00000000000E+00  0.74505805969E-08  0.10566000000E+00  0.10566000000E+00 0. -1.
     999900   -1    0    0    0    0 -0.00000000000E+00 -0.00000000000E+00 -0.74505805969E-08  0.93827000000E+00  0.93827000000E+00 0.  1.
     999902    2    1    2    0    0  0.15519359822E-01 -0.10316386842E-01 -0.15563565654E-01  0.10196503183E+01  0.10193612062E+01 0.  0.
     999903    2    3    3    0    0  0.46839104123E-01  0.11674399103E+00  0.21659988418E-01  0.12919489608E+00  0.19977611438E-01 0.  0.
         14    1    1    2    0    0 -0.15519359822E-01  0.10316386842E-01  0.15563565654E-01  0.24279681683E-01  0.00000000000E+00 0. -1.
     999901    1    3    3    0    0 -0.31319744301E-01 -0.12706037787E+00 -0.37223554072E-01  0.89045542223E+00  0.88000000000E+00 0. -1.
        -11    1    4    4    0    0  0.64536543298E-02  0.47378826422E-02 -0.68188407957E-03  0.80512901474E-02  0.51100000000E-03 0.  1.
         11    1    4    4    0    0  0.40385449793E-01  0.11200610839E+00  0.22341872497E-01  0.12114360594E+00  0.51100000000E-03 0. -1.
</event>
<event>
 8    1  0.1093753E+005  0.1043930E+01  0.7957747E-01            NaN
         13   -1    0    0    0    0  0.00000000000E+00  0.00000000000E+00  0.74505805969E-08  0.10566000000E+00  0.10566000000E+00 0. -1.
     999900   -1    0    0    0    0 -0.00000000000E+00 -0.00000000000E+00 -0.74505805969E-08  0.93827000000E+00  0.93827000000E+00 0. -1.
     999902    2    1    2    0    0 -0.20677982940E-03 -0.19099950844E-01 -0.12105862488E-01  0.10213157835E+01  0.10210653882E+01 0.  0.
     999903    2    3    3    0    0 -0.56034509268E-01 -0.40232008494E-01 -0.11268993398E+00  0.13357682715E+00  0.19628214221E-01 0.  0.
         14    1    1    2    0    0  0.20677982940E-03  0.19099950844E-01  0.12105862488E-01  0.22614216474E-01  0.00000000000E+00 0.  1.
     999901    1    3    3    0    0  0.55827729439E-01  0.21132057650E-01  0.10058407149E+00  0.88773895638E+00  0.88000000000E+00 0.  1.
        -11    1    4    4    0    0 -0.24447996880E-01 -0.10260781184E-01 -0.57134920687E-01  0.62989272618E-01  0.51100000000E-03 0.  1.
         11    1    4    4    0    0 -0.31586512388E-01 -0.29971227310E-01 -0.55555013295E-01  0.70587554530E-01  0.51100000000E-03 0. -1.
</event>
<event>
 8    1  0.1093753E+005  0.1043930E+01  0.7957747E-01            NaN
         13   -1    0    0    0    0  0.00000000000E+00  0.00000000000E+00  0.74505805969E-08  0.10566000000E+00  0.10566000000E+00 0.  1.
     999900   -1    0    0    0    0 -0.00000000000E+00 -0.00000000000E+00 -0.74505805969E-08  0.93827000000E+00  0.93827000000E+00 0.  1.
     999902    2    1    2    0    0 -0.96546011699E-02 -0.20719627232E-01 -0.58838057277E-03  0.10210638576E+01  0.10208077884E+01 0.  0.
     999903    2    3    3    0    0 -0.11400845299E-01  0.49702874663E-01 -0.11835660692E+00  0.13042827933E+00  0.20072235154E-01 0.  0.
         14    1    1    2    0    0  0.96546011699E-02  0.20719627232E-01  0.58838057277E-03  0.22866142396E-01  0.00000000000E+00 0. -1.
     999901    1    3    3    0    0  0.17462441290E-02 -0.70422501895E-01  0.11776822635E+00  0.89063557827E+00  0.88000000000E+00 0. -1.
        -11    1    4    4    0    0  0.50549328811E-02  0.17399392342E-01 -0.47343941406E-01  0.50695178362E-01  0.51100000000E-03 0. -1.
         11    1    4    4    0    0 -0.16455778180E-01  0.32303482321E-01 -0.71012665518E-01  0.79733100972E-01  0.51100000000E-03 0.  1.
</event>
<event>
 8    1  0.1093753E+005  0.1043930E+01  0.7957747E-01            NaN
         13   -1    0    0    0    0  0.00000000000E+00  0.00000000000E+00  0.74505805969E-08  0.10566000000E+00  0.10566000000E+00 0. -1.
     999900   -1    0    0    0    0 -0.00000000000E+00 -0.00000000000E+00 -0.74505805969E-08  0.93827000000E+00  0.93827000000E+00 0.  1.
     999902    2    1    2    0    0 -0.66531389524E-02  0.21679937130E-01 -0.75411757590E-02  0.10200311870E+01  0.10197511800E+01 0.  0.
     999903    2    3    3    0    0  0.59259834260E-01 -0.62070548223E-04  0.11264880685E+00  0.12915360456E+00  0.21889908093E-01 0.  0.
         14    1    1    2    0    0  0.66531389524E-02 -0.21679937130E-01  0.75411757590E-02  0.23898813019E-01  0.00000000000E+00 0. -1.
     999901    1    3    3    0    0 -0.65912973213E-01  0.21742007678E-01 -0.12018998261E+00  0.89087758242E+00  0.88000000000E+00 0.  1.
        -11    1    4    4    0    0  0.45657161526E-01  0.91565182011E-02  0.87209241203E-01  0.98864205334E-01  0.51100000000E-03 0. -1.
         11    1    4    4    0    0  0.13602672735E-01 -0.92185887493E-02  0.25439565652E-01  0.30289399228E-01  0.51100000000E-03 0.  1.
</event>
<event>
 8    1  0.1093753E+005  0.1043930E+01  0.7957747E-01            NaN
         13   -1    0    0    0    0  0.00000000000E+00  0.00000000000E+00  0.74505805969E-08  0.10566000000E+00  0.10566000000E+00 0. -1.
     999900   -1    0    0    0    0 -0.00000000000E+00 -0.00000000000E+00 -0.74505805969E-08  0.93827000000E+00  0.93827000000E+00 0. -1.
     999902    2    1    2    0    0 -0.11017743141E-01  0.22030225842E-03  0.21517507959E-01  0.10197547576E+01  0.10194681571E+01 0.  0.
     999903    2    3    3    0    0 -0.10624987677E+00 -0.12712629363E-01  0.76677032931E-01  0.13280549568E+00  0.17529547807E-01 0.  0.
         14    1    1    2    0    0  0.11017743141E-01 -0.22030225842E-03 -0.21517507959E-01  0.24175242414E-01  0.00000000000E+00 0.  1.
     999901    1    3    3    0    0  0.95232133625E-01  0.12932931621E-01 -0.55159524972E-01  0.88694926190E+00  0.88000000000E+00 0. -1.
        -11    1    4    4    0    0 -0.64354222223E-01 -0.11490410406E-01  0.55934829508E-01  0.86037559950E-01  0.51100000000E-03 0.  1.
         11    1    4    4    0    0 -0.41895654544E-01 -0.12222189572E-02  0.20742203423E-01  0.46767935733E-01  0.51100000000E-03 0. -1.
</event>
<event>
 8    1  0.1093753E+005  0.1043930E+01  0.7957747E-01            NaN
         13   -1    0    0    0    0  0.00000000000E+00  0.00000000000E+00  0.74505805969E-08  0.10566000000E+00  0.10566000000E+00 0.  1.
     999900   -1    0    0    0    0 -0.00000000000E+00 -0.00000000000E+00 -0.74505805969E-08  0.93827000000E+00  0.93827000000E+00 0.  1.
     999902    2    1    2    0    0 -0.15779591771E-01  0.18142952352E-01 -0.13180411759E-02  0.10198488981E+01  0.10195645519E+01 0.  0.
     999903    2    3    3    0    0  0.38538321388E-01  0.11458904137E+00  0.47615636529E-01  0.13156584152E+00  0.20651179078E-01 0.  0.
         14    1    1    2    0    0  0.15779591771E-01 -0.18142952352E-01  0.13180411759E-02  0.24081101906E-01  0.00000000000E+00 0.  1.
     999901    1    3    3    0    0 -0.54317913158E-01 -0.96446089014E-01 -0.48933677705E-01  0.88828305657E+00  0.88000000000E+00 0.  1.
        -11    1    4    4    0    0  0.31142002818E-02  0.43931136300E-02  0.71070634028E-02  0.89313583498E-02  0.51100000000E-03 0. -1.
         11    1    4    4    0    0  0.35424121106E-01  0.11019592774E+00  0.40508573126E-01  0.12263448317E+00  0.51100000000E-03 0.  1.
</event>
<event>
 8    1  0.1093753E+005  0.1043930E+01  0.7957747E-01            NaN
         13   -1    0    0    0    0  0.00000000000E+00  0.00000000000E+00  0.74505805969E-08  0.10566000000E+00  0.10566000000E+00 0. -1.
     999900   -1    0    0    0    0 -0.00000000000E+00 -0.00000000000E+00 -0.74505805969E-08  0.93827000000E+00  0.93827000000E+00 0. -1.
     999902    2    1    2    0    0  0.22021540607E-01  0.45293492439E-02 -0.99783142785E-02  0.10193326422E+01  0.10190358215E+01 0.  0.
     999903    2    3    3    0    0 -0.12369828137E+00 -0.19601597163E-01 -0.51197771294E-02  0.12700973288E+00  0.20488355329E-01 0.  0.
         14    1    1    2    0    0 -0.22021540607E-01 -0.45293492439E-02  0.99783142785E-02  0.24597357808E-01  0.00000000000E+00 0. -1.
     999901    1    3    3    0    0  0.14571982198E+00  0.24130946407E-01 -0.48585371491E-02  0.89232290931E+00  0.88000000000E+00 0.  1.
        -11    1    4    4    0    0 -0.46053793441E-01 -0.25951248967E-02  0.68203711812E-02  0.46631160693E-01  0.51100000000E-03 0.  1.
         11    1    4    4    0    0 -0.77644487930E-01 -0.17006472267E-01 -0.11940148311E-01  0.80378572192E-01  0.51100000000E-03 0. -1.
</event>
<event>
 8    1  0.1093753E+005  0.1043930E+01  0.7957747E-01            NaN
         13   -1    0    0    0    0  0.00000000000E+00  0.00000000000E+00  0.74505805969E-08  0.10566000000E+00  0.10566000000E+00 0. -1.
     999900   -1    0    0    0    0 -0.00000000000E+00 -0.00000000000E+00 -0.74505805969E-08  0.93827000000E+00  0.93827000000E+00 0. -1.
     999902    2    1    2    0    0  0.19466586846E-01  0.96504999605E-02  0.87284783948E-02  0.10205149090E+01  0.10202462511E+01 0.  0.
     999903    2    3    3    0    0 -0.17915930528E-01 -0.12612475581E+00  0.66886177957E-02  0.12931541743E+00  0.21196815403E-01 0.  0.
         14    1    1    2    0    0 -0.19466586846E-01 -0.96504999605E-02 -0.87284783948E-02  0.23415091031E-01  0.00000000000E+00 0.  1.
     999901    1    3    3    0    0  0.37382517374E-01  0.13577525577E+00  0.20398605991E-02  0.89119949154E+00  0.88000000000E+00 0. -1.
        -11    1    4    4    0    0 -0.19684113286E-02 -0.17642682749E-01 -0.64225002747E-02  0.18885140416E-01  0.51100000000E-03 0. -1.
         11    1    4    4    0    0 -0.15947519199E-01 -0.10848207306E+00  0.13111118070E-01  0.11043027702E+00  0.51100000000E-03 0.  1.
</event>
<event>
 8    1  0.1093753E+005  0.1043930E+01  0.7957747E-01            NaN
         13   -1    0    0    0    0  0.00000000000E+00  0.00000000000E+00  0.74505805969E-08  0.10566000000E+00  0.10566000000E+00 0. -1.
     999900   -1    0    0    0    0 -0.00000000000E+00 -0.00000000000E+00 -0.74505805969E-08  0.93827000000E+00  0.93827000000E+00 0. -1.
     999902    2    1    2    0    0 -0.50031005141E-02 -0.19423366701E-01  0.12020207718E-01  0.10205465960E+01  0.10202786732E+01 0.  0.
     999903    2    3    3    0    0 -0.64545500092E-02  0.30404159047E-01  0.12639768765E+00  0.13174566388E+00  0.20358546285E-01 0.  0.
         14    1    1    2    0    0  0.50031005141E-02  0.19423366701E-01 -0.12020207718E-01  0.23383403994E-01  0.00000000000E+00 0. -1.
     999901    1    3    3    0    0  0.14514494951E-02 -0.49827525748E-01 -0.11437747993E+00  0.88880093212E+00  0.88000000000E+00 0. -1.
        -11    1    4    4    0    0 -0.28628472002E-03  0.23327725811E-01  0.11296441689E+00  0.11534940552E+00  0.51100000000E-03 0.  1.
         11    1    4    4    0    0 -0.61682652892E-02  0.70764332368E-02  0.13433270760E-01  0.16396258364E-01  0.51100000000E-03 0. -1.
</event>
<event>
 8    1  0.1093753E+005  0.1043930E+01  0.7957747E-01            NaN
         13   -1    0    0    0    0  0.00000000000E+00  0.00000000000E+00  0.74505805969E-08  0.10566000000E+00  0.10566000000E+00 0. -1.
     999900   -1    0    0    0    0 -0.00000000000E+00 -0.00000000000E+00 -0.74505805969E-08  0.93827000000E+00  0.93827000000E+00 0. -1.
     999902    2    1    2    0    0  0.59677003515E-02 -0.91134099202E-02  0.21946986570E-01  0.10194282060E+01  0.10191337152E+01 0.  0.
     999903    2    3    3    0    0 -0.47858223130E-01  0.29769148598E-01  0.11743801543E+00  0.13177533470E+00  0.19910791997E-01 0.  0.
         14    1    1    2    0    0 -0.59677003515E-02  0.91134099202E-02 -0.21946986570E-01  0.24501793962E-01  0.00000000000E+00 0.  1.
     999901    1    3    3    0    0  0.53825923482E-01 -0.38882558518E-01 -0.95491028863E-01  0.88765287133E+00  0.88000000000E+00 0. -1.
        -11    1    4    4    0    0 -0.11622812820E-01  0.18271476682E-02  0.41277891437E-01  0.42924977448E-01  0.51100000000E-03 0.  1.
         11    1    4    4    0    0 -0.36235410310E-01  0.27942000929E-01  0.76160123996E-01  0.88850357255E-01  0.51100000000E-03 0. -1.
</event>
<event>
 8    1  0.1093753E+005  0.1043930E+01  0.7957747E-01            NaN
         13   -1    0    0    0    0  0.00000000000E+00  0.00000000000E+00  0.74505805969E-08  0.10566000000E+00  0.10566000000E+00 0.  1.
     999900   -1    0    0    0    0 -0.00000000000E+00 -0.00000000000E+00 -0.74505805969E-08  0.93827000000E+00  0.93827000000E+00 0.  1.
     999902    2    1    2    0    0  0.13016234516E-01 -0.18991229666E-01  0.47083507639E-02  0.10204298355E+01  0.10201591991E+01 0.  0.
     999903    2    3    3    0    0  0.32962036162E-01 -0.11730611767E+00 -0.49526012399E-01  0.13307138573E+00  0.20197691084E-01 0.  0.
         14    1    1    2    0    0 -0.13016234516E-01  0.18991229666E-01 -0.47083507639E-02  0.23500164513E-01  0.00000000000E+00 0. -1.
     999901    1    3    3    0    0 -0.19945801646E-01  0.98314888004E-01  0.54234363163E-01  0.88735844976E+00  0.88000000000E+00 0.  1.
        -11    1    4    4    0    0  0.27300348039E-01 -0.69283920776E-01 -0.36803865183E-01  0.83068383243E-01  0.51100000000E-03 0.  1.
         11    1    4    4    0    0  0.56616881230E-02 -0.48022196895E-01 -0.12722147216E-01  0.50003002488E-01  0.51100000000E-03 0. -1.
</event>
<event>
 8    1  0.1093753E+005  0.1043930E+01  0.7957747E-01            NaN
         13   -1    0    0    0    0  0.00000000000E+00  0.00000000000E+00  0.74505805969E-08  0.10566000000E+00  0.10566000000E+00 0. -1.
     999900   -1    0    0    0    0 -0.00000000000E+00 -0.00000000000E+00 -0.74505805969E-08  0.93827000000E+00  0.93827000000E+00 0.  1.
     999902    2    1    2    0    0  0.49564713248E-02  0.17180808220E-01 -0.16631579093E-01  0.10195095946E+01  0.10192170805E+01 0.  0.
     999903    2    3    3    0    0 -0.50565599292E-01 -0.51053602700E-01  0.10289329784E+00  0.12708322147E+00  0.19994105620E-01 0.  0.
         14    1    1    2    0    0 -0.49564713248E-02 -0.17180808220E-01  0.16631579093E-01  0.24420405447E-01  0.00000000000E+00 0. -1.
     999901    1    3    3    0    0  0.55522070617E-01  0.68234410920E-01 -0.11952487693E+00  0.89242637308E+00  0.88000000000E+00 0.  1.
        -11    1    4    4    0    0 -0.24689318758E-01 -0.14865840433E-01  0.52248999064E-01  0.59672227180E-01  0.51100000000E-03 0. -1.
         11    1    4    4    0    0 -0.25876280534E-01 -0.36187762267E-01  0.50644298776E-01  0.67410994294E-01  0.51100000000E-03 0.  1.
</event>
<event>
 8    1  0.1093753E+005  0.1043930E+01  0.7957747E-01            NaN
         13   -1    0    0    0    0  0.00000000000E+00  0.00000000000E+00  0.74505805969E-08  0.10566000000E+00  0.10566000000E+00 0. -1.
     999900   -1    0    0    0    0 -0.00000000000E+00 -0.00000000000E+00 -0.74505805969E-08  0.93827000000E+00  0.93827000000E+00 0.  1.
     999902    2    1    2    0    0  0.13777625355E-01  0.10336020562E-01 -0.15769523496E-01  0.10205776093E+01  0.10203104049E+01 0.  0.
     999903    2    3    3    0    0  0.70280910221E-01 -0.55109783873E-01 -0.96143730779E-01  0.13269485366E+00  0.19692958112E-01 0.  0.
         14    1    1    2    0    0 -0.13777625355E-01 -0.10336020562E-01  0.15769523496E-01  0.23352390729E-01  0.00000000000E+00 0. -1.
     999901    1    3    3    0    0 -0.56503284866E-01  0.65445804435E-01  0.80374207283E-01  0.88788275561E+00  0.88000000000E+00 0. -1.
        -11    1    4    4    0    0  0.51631672073E-01 -0.34529902445E-01 -0.54492221357E-01  0.82630545401E-01  0.51100000000E-03 0.  1.
         11    1    4    4    0    0  0.18649238148E-01 -0.20579881428E-01 -0.41651509421E-01  0.50064308256E-01  0.51100000000E-03 0. -1.
</event>
<event>
 8    1  0.1493427E+005  0.1043930E+01  0.7957747E-01            NaN
         13   -1    0    0    0    0  0.00000000000E+00  0.00000000000E+00  0.74505805969E-08  0.10566000000E+00  0.10566000000E+00 0.  1.
     999900   -1    0    0    0    0 -0.00000000000E+00 -0.00000000000E+00 -0.74505805969E-08  0.93827000000E+00  0.93827000000E+00 0.  1.
     999902    2    1    2    0    0  0.17982867335E-01  0.60127019113E-02 -0.14836789515E-01  0.10198537373E+01  0.10195695067E+01 0.  0.
     999903    2    3    3    0    0 -0.69826160819E-01 -0.58778356215E-01  0.86566769107E-01  0.12733427627E+00  0.19738908422E-01 0.  0.
         14    1    1    2    0    0 -0.17982867335E-01 -0.60127019113E-02  0.14836789515E-01  0.24076262687E-01  0.00000000000E+00 0.  1.
     999901    1    3    3    0    0  0.87809028154E-01  0.64791058126E-01 -0.10140355862E+00  0.89251946104E+00  0.88000000000E+00 0.  1.
        -11    1    4    4    0    0 -0.40244139296E-01 -0.23623076721E-01  0.51750618371E-01  0.69685207356E-01  0.51100000000E-03 0.  1.
         11    1    4    4    0    0 -0.29582021523E-01 -0.35155279494E-01  0.34816150736E-01  0.57649068915E-01  0.51100000000E-03 0. -1.
</event>
<event>
 8    1  0.1093753E+005  0.1043930E+01  0.7957747E-01            NaN
         13   -1    0    0    0    0  0.00000000000E+00  0.00000000000E+00  0.74505805969E-08  0.10566000000E+00  0.10566000000E+00 0.  1.
     999900   -1    0    0    0    0 -0.00000000000E+00 -0.00000000000E+00 -0.74505805969E-08  0.93827000000E+00  0.93827000000E+00 0.  1.
     999902    2    1    2    0    0 -0.22180807690E-01 -0.94739274573E-02  0.31282861752E-02  0.10196086163E+01  0.10193184982E+01 0.  0.
     999903    2    3    3    0    0  0.23251414674E-01 -0.13165492229E-01 -0.12485632314E+00  0.12918300193E+00  0.19626209236E-01 0.  0.
         14    1    1    2    0    0  0.22180807690E-01  0.94739274573E-02 -0.31282861752E-02  0.24321383712E-01  0.00000000000E+00 0. -1.
     999901    1    3    3    0    0 -0.45432222365E-01  0.36915647717E-02  0.12798460932E+00  0.89042561436E+00  0.88000000000E+00 0. -1.
        -11    1    4    4    0    0  0.12998848429E-01  0.35731593898E-02 -0.48303411073E-01  0.50151950817E-01  0.51100000000E-03 0. -1.
         11    1    4    4    0    0  0.10252566246E-01 -0.16738651619E-01 -0.76552912072E-01  0.79031051115E-01  0.51100000000E-03 0.  1.
</event>
<event>
 8    1  0.1093753E+005  0.1043930E+01  0.7957747E-01            NaN
         13   -1    0    0    0    0  0.00000000000E+00  0.00000000000E+00  0.74505805969E-08  0.10566000000E+00  0.10566000000E+00 0.  1.
     999900   -1    0    0    0    0 -0.00000000000E+00 -0.00000000000E+00 -0.74505805969E-08  0.93827000000E+00  0.93827000000E+00 0. -1.
     999902    2    1    2    0    0 -0.10180045172E-01  0.19334595829E-01  0.11110261639E-01  0.10194167826E+01  0.10191220137E+01 0.  0.
     999903    2    3    3    0    0 -0.85223406914E-01  0.82301580878E-01 -0.53816303388E-01  0.13160384833E+00  0.19667208308E-01 0.  0.
         14    1    1    2    0    0  0.10180045172E-01 -0.19334595829E-01 -0.11110261639E-01  0.24513217440E-01  0.00000000000E+00 0. -1.
     999901    1    3    3    0    0  0.75043361742E-01 -0.62966985048E-01  0.64926565027E-01  0.88781293423E+00  0.88000000000E+00 0.  1.
        -11    1    4    4    0    0 -0.56021885359E-01  0.51732862218E-01 -0.44571561287E-01  0.88326812855E-01  0.51100000000E-03 0. -1.
         11    1    4    4    0    0 -0.29201521555E-01  0.30568718659E-01 -0.92447421009E-02  0.43277035470E-01  0.51100000000E-03 0.  1.
</event>
<event>
 8    1  0.1093753E+005  0.1043930E+01  0.7957747E-01            NaN
         13   -1    0    0    0    0  0.00000000000E+00  0.00000000000E+00  0.74505805969E-08  0.10566000000E+00  0.10566000000E+00 0.  1.
     999900   -1    0    0    0    0 -0.00000000000E+00 -0.00000000000E+00 -0.74505805969E-08  0.93827000000E+00  0.93827000000E+00 0.  1.
     999902    2    1    2    0    0 -0.19480095066E-01 -0.10250439631E-01 -0.13220408823E-01  0.10182526788E+01  0.10179288742E+01 0.  0.
     999903    2    3    3    0    0 -0.59848960939E-01 -0.13094896432E-01 -0.11465835878E+00  0.13150164608E+00  0.19818406791E-01 0.  0.
         14    1    1    2    0    0  0.19480095066E-01  0.10250439631E-01  0.13220408823E-01  0.25677321236E-01  0.00000000000E+00 0.  1.
     999901    1    3    3    0    0  0.40368865872E-01  0.28444568010E-02  0.10143794995E+00  0.88675103268E+00  0.88000000000E+00 0. -1.
        -11    1    4    4    0    0 -0.32452623113E-02  0.13014889324E-02 -0.19727656415E-01  0.20041635401E-01  0.51100000000E-03 0.  1.
         11    1    4    4    0    0 -0.56603698627E-01 -0.14396385364E-01 -0.94930702361E-01  0.11146001068E+00  0.51100000000E-03 0. -1.
</event>
<event>
 8    1  0.1093753E+005  0.1043930E+01  0.7957747E-01            NaN
         13   -1    0    0    0    0  0.00000000000E+00  0.00000000000E+00  0.74505805969E-08  0.10566000000E+00  0.10566000000E+00 0. -1.
     999900   -1    0    0    0    0 -0.00000000000E+00 -0.00000000000E+00 -0.74505805969E-08  0.93827000000E+00  0.93827000000E+00 0.  1.
     999902    2    1    2    0    0  0.14309557865E-02 -0.18438215766E-01 -0.14197188881E-01  0.10206152920E+01  0.10203489593E+01 0.  0.
     999903    2    3    3    0    0  0.86726304300E-05  0.10686855871E+00  0.65872647556E-01  0.12813840756E+00  0.25677945408E-01 0.  0.
         14    1    1    2    0    0 -0.14309557865E-02  0.18438215766E-01  0.14197188881E-01  0.23314707959E-01  0.00000000000E+00 0. -1.
     999901    1    3    3    0    0  0.14222831561E-02 -0.12530677448E+00 -0.80069836437E-01  0.89247688448E+00  0.88000000000E+00 0.  1.
        -11    1    4    4    0    0  0.69871471514E-02  0.47819908252E-01  0.42117757827E-01  0.64107179753E-01  0.51100000000E-03 0.  1.
         11    1    4    4    0    0 -0.69784745210E-02  0.59048650460E-01  0.23754889729E-01  0.64031227810E-01  0.51100000000E-03 0. -1.
</event>
<event>
 8    1  0.1093753E+005  0.1043930E+01  0.7957747E-01            NaN
         13   -1    0    0    0    0  0.00000000000E+00  0.00000000000E+00  0.74505805969E-08  0.10566000000E+00  0.10566000000E+00 0. -1.
     999900   -1    0    0    0    0 -0.00000000000E+00 -0.00000000000E+00 -0.74505805969E-08  0.93827000000E+00  0.93827000000E+00 0. -1.
     999902    2    1    2    0    0  0.31796752160E-03  0.16334042592E-01 -0.18362611985E-01  0.10193518070E+01  0.10190554543E+01 0.  0.
     999903    2    3    3    0    0 -0.11763231376E+00 -0.34626603794E-01  0.33612585848E-01  0.12850351606E+00  0.18627527509E-01 0.  0.
         14    1    1    2    0    0 -0.31796752160E-03 -0.16334042592E-01  0.18362611985E-01  0.24578192970E-01  0.00000000000E+00 0. -1.
     999901    1    3    3    0    0  0.11795028128E+00  0.50960646386E-01 -0.51975197833E-01  0.89084829097E+00  0.88000000000E+00 0.  1.
        -11    1    4    4    0    0 -0.52773185946E-01 -0.67394288648E-02  0.10637803139E-01  0.54257285528E-01  0.51100000000E-03 0. -1.
         11    1    4    4    0    0 -0.64859127816E-01 -0.27887174929E-01  0.22974782710E-01  0.74246230532E-01  0.51100000000E-03 0.  1.
</event>
<event>
 8    1  0.1093753E+005  0.1043930E+01  0.7957747E-01            NaN
         13   -1    0    0    0    0  0.00000000000E+00  0.00000000000E+00  0.74505805969E-08  0.10566000000E+00  0.10566000000E+00 0. -1.
     999900   -1    0    0    0    0 -0.00000000000E+00 -0.00000000000E+00 -0.74505805969E-08  0.93827000000E+00  0.93827000000E+00 0. -1.
     999902    2    1    2    0    0  0.39020600342E-02  0.47218005687E-02 -0.22669541900E-01  0.10204474617E+01  0.10201772359E+01 0.  0.
     999903    2    3    3    0    0  0.91909037064E-01 -0.68225265900E-01 -0.63232827412E-01  0.13212776555E+00  0.18904971966E-01 0.  0.
         14    1    1    2    0    0 -0.39020600342E-02 -0.47218005687E-02  0.22669541900E-01  0.23482538259E-01  0.00000000000E+00 0. -1.
     999901    1    3    3    0    0 -0.88006977030E-01  0.72947066469E-01  0.40563285511E-01  0.88831969619E+00  0.88000000000E+00 0.  1.
        -11    1    4    4    0    0  0.20063734984E-01 -0.23321813484E-01 -0.11443865493E-01  0.32828091996E-01  0.51100000000E-03 0. -1.
         11    1    4    4    0    0  0.71845302080E-01 -0.44903452417E-01 -0.51788961919E-01  0.99299673552E-01  0.51100000000E-03 0.  1.
</event>
<event>
 8    1  0.1093753E+005  0.1043930E+01  0.7957747E-01            NaN
         13   -1    0    0    0    0  0.00000000000E+00  0.00000000000E+00  0.74505805969E-08  0.10566000000E+00  0.10566000000E+00 0. -1.
     999900   -1    0    0    0    0 -0.00000000000E+00 -0.00000000000E+00 -0.74505805969E-08  0.93827000000E+00  0.93827000000E+00 0.  1.
     999902    2    1    2    0    0 -0.11601766728E-01  0.13191174102E-01 -0.14605623754E-01  0.10210841621E+01  0.10208285526E+01 0.  0.
     999903    2    3    3    0    0  0.33534592722E-01  0.95605103386E-01  0.80728997097E-01  0.13096167802E+00  0.19206390461E-01 0.  0.
         14    1    1    2    0    0  0.11601766728E-01 -0.13191174102E-01  0.14605623754E-01  0.22845837928E-01  0.00000000000E+00 0. -1.
     999901    1    3    3    0    0 -0.45136359450E-01 -0.82413929284E-01 -0.95334620852E-01  0.89012248405E+00  0.88000000000E+00 0.  1.
        -11    1    4    4    0    0  0.22685029742E-01  0.50566515642E-01  0.33294722690E-01  0.64655879536E-01  0.51100000000E-03 0.  1.
         11    1    4    4    0    0  0.10849562980E-01  0.45038587744E-01  0.47434274407E-01  0.66305798482E-01  0.51100000000E-03 0. -1.
</event>
<event>
 8    1  0.1093753E+005  0.1043930E+01  0.7957747E-01            NaN
         13   -1    0    0    0    0  0.00000000000E+00  0.00000000000E+00  0.74505805969E-08  0.10566000000E+00  0.10566000000E+00 0. -1.
     999900   -1    0    0    0    0 -0.00000000000E+00 -0.00000000000E+00 -0.74505805969E-08  0.93827000000E+00  0.93827000000E+00 0.  1.
     999902    2    1    2    0    0 -0.19325380088E-01  0.59728649180E-02  0.11693581820E-01  0.10205658119E+01  0.10202983344E+01 0.  0.
     999903    2    3    3    0    0 -0.91390404239E-01  0.66282794571E-01  0.68977984734E-01  0.13371060490E+00  0.19363590640E-01 0.  0.
         14    1    1    2    0    0  0.19325380088E-01 -0.59728649180E-02 -0.11693581820E-01  0.23364188123E-01  0.00000000000E+00 0. -1.
     999901    1    3    3    0    0  0.72065024151E-01 -0.60309929653E-01 -0.57284402914E-01  0.88685520697E+00  0.88000000000E+00 0.  1.
        -11    1    4    4    0    0 -0.63320241337E-01  0.34805692518E-01  0.40720044635E-01  0.82941379002E-01  0.51100000000E-03 0.  1.
         11    1    4    4    0    0 -0.28070162902E-01  0.31477102052E-01  0.28257940099E-01  0.50769225901E-01  0.51100000000E-03 0. -1.
</event>
<event>
 8    1  0.1093753E+005  0.1043930E+01  0.7957747E-01            NaN
         13   -1    0    0    0    0  0.00000000000E+00  0.00000000000E+00  0.74505805969E-08  0.10566000000E+00  0.10566000000E+00 0.  1.
     999900   -1    0    0    0    0 -0.00000000000E+00 -0.00000000000E+00 -0.74505805969E-08  0.93827000000E+00  0.93827000000E+00 0. -1.
     999902    2    1    2    0    0  0.12337517322E-01  0.55765232765E-02 -0.18626330532E-01  0.10209027958E+01  0.10206430651E+01 0.  0.
     999903    2    3    3    0    0 -0.75972605301E-01  0.10406760663E+00 -0.12242643564E-01  0.13099273137E+00  0.20181918769E-01 0.  0.
         14    1    1    2    0    0 -0.12337517322E-01 -0.55765232765E-02  0.18626330532E-01  0.23027204229E-01  0.00000000000E+00 0.  1.
     999901    1    3    3    0    0  0.88310122623E-01 -0.98491083354E-01 -0.63836869679E-02  0.88991006440E+00  0.88000000000E+00 0. -1.
        -11    1    4    4    0    0 -0.42207404459E-01  0.48142648657E-01 -0.14405325782E-01  0.65627388663E-01  0.51100000000E-03 0. -1.
         11    1    4    4    0    0 -0.33765200842E-01  0.55924957973E-01  0.21626822180E-02  0.65365342710E-01  0.51100000000E-03 0.  1.
</event>
<event>
 8    1  0.1093753E+005  0.1043930E+01  0.7957747E-01            NaN
         13   -1    0    0    0    0  0.00000000000E+00  0.00000000000E+00  0.74505805969E-08  0.10566000000E+00  0.10566000000E+00 0. -1.
     999900   -1    0    0    0    0 -0.00000000000E+00 -0.00000000000E+00 -0.74505805969E-08  0.93827000000E+00  0.93827000000E+00 0.  1.
     999902    2    1    2    0    0 -0.38050695219E-02  0.11336036253E-01 -0.20893472329E-01  0.10198567481E+01  0.10195725894E+01 0.  0.
     999903    2    3    3    0    0  0.52033817831E-01 -0.11437205755E+00 -0.22674539289E-01  0.12916955361E+00  0.19548736586E-01 0.  0.
         14    1    1    2    0    0  0.38050695219E-02 -0.11336036253E-01  0.20893472329E-01  0.24073251919E-01  0.00000000000E+00 0. -1.
     999901    1    3    3    0    0 -0.55838887353E-01  0.12570809380E+00  0.17810669600E-02  0.89068719447E+00  0.88000000000E+00 0. -1.
        -11    1    4    4    0    0  0.74759371512E-02 -0.38089370322E-01 -0.69833272131E-02  0.39442587995E-01  0.51100000000E-03 0. -1.
         11    1    4    4    0    0  0.44557880680E-01 -0.76282687230E-01 -0.15691212076E-01  0.89726965618E-01  0.51100000000E-03 0.  1.
</event>
<event>
 8    1  0.1093753E+005  0.1043930E+01  0.7957747E-01            NaN
         13   -1    0    0    0    0  0.00000000000E+00  0.00000000000E+00  0.74505805969E-08  0.10566000000E+00  0.10566000000E+00 0. -1.
     999900   -1    0    0    0    0 -0.00000000000E+00 -0.00000000000E+00 -0.74505805969E-08  0.93827000000E+00  0.93827000000E+00 0. -1.
     999902    2    1    2    0    0  0.75832690031E-02  0.16420554176E-01  0.96557962366E-02  0.10234269522E+01  0.10232215554E+01 0.  0.
     999903    2    3    3    0    0 -0.34142890365E-01  0.93567911620E-01  0.89475254510E-01  0.13547203608E+00  0.20643651401E-01 0.  0.
         14    1    1    2    0    0 -0.75832690031E-02 -0.16420554176E-01 -0.96557962366E-02  0.20503047802E-01  0.00000000000E+00 0. -1.
     999901    1    3    3    0    0  0.41726159368E-01 -0.77147357444E-01 -0.79819458273E-01  0.88795491612E+00  0.88000000000E+00 0.  1.
        -11    1    4    4    0    0 -0.11657916515E-01  0.50539593246E-01  0.35395317074E-01  0.62795279239E-01  0.51100000000E-03 0. -1.
         11    1    4    4    0    0 -0.22484973850E-01  0.43028318373E-01  0.54079937435E-01  0.72676756842E-01  0.51100000000E-03 0.  1.
</event>
<event>
 8    1  0.1093753E+005  0.1043930E+01  0.7957747E-01            NaN
         13   -1    0    0    0    0  0.00000000000E+00  0.00000000000E+00  0.74505805969E-08  0.10566000000E+00  0.10566000000E+00 0.  1.
     999900   -1    0    0    0    0 -0.00000000000E+00 -0.00000000000E+00 -0.74505805969E-08  0.93827000000E+00  0.93827000000E+00 0. -1.
     999902    2    1    2    0    0  0.14623790539E-01  0.62779416133E-02 -0.18741845962E-01  0.10193429182E+01  0.10190463485E+01 0.  0.
     999903    2    3    3    0    0 -0.49133278076E-01  0.19503439185E-01  0.11391741422E+00  0.12702102736E+00  0.19044709875E-01 0.  0.
         14    1    1    2    0    0 -0.14623790539E-01 -0.62779416133E-02  0.18741845962E-01  0.24587081785E-01  0.00000000000E+00 0.  1.
     999901    1    3    3    0    0  0.63757068616E-01 -0.13225497571E-01 -0.13265926018E+00  0.89232189085E+00  0.88000000000E+00 0. -1.
        -11    1    4    4    0    0 -0.71815417656E-02  0.62391450704E-02  0.38913813053E-01  0.40063043327E-01  0.51100000000E-03 0.  1.
         11    1    4    4    0    0 -0.41951736311E-01  0.13264294114E-01  0.75003601170E-01  0.86957984034E-01  0.51100000000E-03 0. -1.
</event>
<event>
 8    1  0.1093753E+005  0.1043930E+01  0.7957747E-01            NaN
         13   -1    0    0    0    0  0.00000000000E+00  0.00000000000E+00  0.74505805969E-08  0.10566000000E+00  0.10566000000E+00 0. -1.
     999900   -1    0    0    0    0 -0.00000000000E+00 -0.00000000000E+00 -0.74505805969E-08  0.93827000000E+00  0.93827000000E+00 0. -1.
     999902    2    1    2    0    0 -0.16972213928E-01  0.71071019367E-02  0.15165759259E-01  0.10200853529E+01  0.10198066287E+01 0.  0.
     999903    2    3    3    0    0 -0.15131874240E-01 -0.12609224591E+00  0.18742521830E-01  0.13005263079E+00  0.20836903665E-01 0.  0.
         14    1    1    2    0    0  0.16972213928E-01 -0.71071019367E-02 -0.15165759259E-01  0.23844647145E-01  0.00000000000E+00 0.  1.
     999901    1    3    3    0    0 -0.18403396875E-02  0.13319934785E+00 -0.35767625708E-02  0.89003272207E+00  0.88000000000E+00 0. -1.
        -11    1    4    4    0    0 -0.93365124913E-02 -0.18991294768E-01 -0.90779673743E-06  0.21168393049E-01  0.51100000000E-03 0.  1.
         11    1    4    4    0    0 -0.57953617487E-02 -0.10710095114E+00  0.18743429627E-01  0.10888423774E+00  0.51100000000E-03 0. -1.
</event>
<event>
 8    1  0.1093753E+005  0.1043930E+01  0.7957747E-01            NaN
         13   -1    0    0    0    0  0.00000000000E+00  0.00000000000E+00  0.74505805969E-08  0.10566000000E+00  0.10566000000E+00 0.  1.
     999900   -1    0    0    0    0 -0.00000000000E+00 -0.00000000000E+00 -0.74505805969E-08  0.93827000000E+00  0.93827000000E+00 0. -1.
     999902    2    1    2    0    0 -0.10784982150E-01 -0.15157600548E-01  0.15928216679E-01  0.10194396594E+01  0.10191454472E+01 0.  0.
     999903    2    3    3    0    0  0.80972125554E-01  0.79065614294E-01 -0.54366364895E-01  0.12689346499E+00  0.18395470738E-01 0.  0.
         14    1    1    2    0    0  0.10784982150E-01  0.15157600548E-01 -0.15928216679E-01  0.24490340564E-01  0.00000000000E+00 0. -1.
     999901    1    3    3    0    0 -0.91757107704E-01 -0.94223214842E-01  0.70294581575E-01  0.89254619445E+00  0.88000000000E+00 0. -1.
        -11    1    4    4    0    0  0.34046232746E-01  0.21383606838E-01 -0.21473077598E-01  0.45582439472E-01  0.51100000000E-03 0.  1.
         11    1    4    4    0    0  0.46925892808E-01  0.57682007456E-01 -0.32893287297E-01  0.81311025514E-01  0.51100000000E-03 0. -1.
</event>
<event>
 8    1  0.1093753E+005  0.1043930E+01  0.7957747E-01            NaN
         13   -1    0    0    0    0  0.00000000000E+00  0.00000000000E+00  0.74505805969E-08  0.10566000000E+00  0.10566000000E+00 0.  1.
     999900   -1    0    0    0    0 -0.00000000000E+00 -0.00000000000E+00 -0.74505805969E-08  0.93827000000E+00  0.93827000000E+00 0.  1.
     999902    2    1    2    0    0 -0.95965457220E-02 -0.13277030837E-01 -0.17581733857E-01  0.10198989658E+01  0.10196158149E+01 0.  0.
     999903    2    3    3    0    0  0.57507798813E-03 -0.11763473864E+00 -0.61001846267E-01  0.13261135786E+00  0.51268444867E-02 0.  0.
         14    1    1    2    0    0  0.95965457220E-02  0.13277030837E-01  0.17581733857E-01  0.24031034166E-01  0.00000000000E+00 0.  1.
     999901    1    3    3    0    0 -0.10171623710E-01  0.10435770781E+00  0.43420112410E-01  0.88728760798E+00  0.88000000000E+00 0. -1.
        -11    1    4    4    0    0  0.17799733913E-02 -0.58898671830E-01 -0.28270821754E-01  0.65358414395E-01  0.51100000000E-03 0. -1.
         11    1    4    4    0    0 -0.12048954032E-02 -0.58736066813E-01 -0.32731024514E-01  0.67252943462E-01  0.51100000000E-03 0.  1.
</event>
<event>
 8    1  0.1093753E+005  0.1043930E+01  0.7957747E-01            NaN
         13   -1    0    0    0    0  0.00000000000E+00  0.00000000000E+00  0.74505805969E-08  0.10566000000E+00  0.10566000000E+00 0.  1.
     999900   -1    0    0    0    0 -0.00000000000E+00 -0.00000000000E+00 -0.74505805969E-08  0.93827000000E+00  0.93827000000E+00 0.  1.
     999902    2    1    2    0    0 -0.14785102370E-01 -0.17133767842E-01  0.11375660595E-02  0.10212703595E+01  0.10210189459E+01 0.  0.
     999903    2    3    3    0    0  0.30841506066E-01  0.13350428159E-01  0.12515686199E+00  0.13088175927E+00  0.18340184761E-01 0.  0.
         14    1    1    2    0    0  0.14785102370E-01  0.17133767842E-01 -0.11375660595E-02  0.22659640534E-01  0.00000000000E+00 0. -1.
     999901    1    3    3    0    0 -0.45626608436E-01 -0.30484196002E-01 -0.12401929593E+00  0.89038860020E+00  0.88000000000E+00 0.  1.
        -11    1    4    4    0    0  0.15838008121E-01  0.16469351896E-01  0.79432353494E-01  0.82654957236E-01  0.51100000000E-03 0. -1.
         11    1    4    4    0    0  0.15003497945E-01 -0.31189237370E-02  0.45724508496E-01  0.48226802030E-01  0.51100000000E-03 0.  1.
</event>
<event>
 8    1  0.1093753E+005  0.1043930E+01  0.7957747E-01            NaN
         13   -1    0    0    0    0  0.00000000000E+00  0.00000000000E+00  0.74505805969E-08  0.10566000000E+00  0.10566000000E+00 0. -1.
     999900   -1    0    0    0    0 -0.00000000000E+00 -0.00000000000E+00 -0.74505805969E-08  0.93827000000E+00  0.93827000000E+00 0.  1.
     999902    2    1    2    0    0  0.14384584850E-01 -0.10077023212E-03 -0.17686510128E-01  0.10211322133E+01  0.10208776901E+01 0.  0.
     999903    2    3    3    0    0 -0.58404968227E-01 -0.25838792369E-02  0.11270979309E+00  0.12854738222E+00  0.20077730719E-01 0.  0.
         14    1    1    2    0    0 -0.14384584850E-01  0.10077023212E-03  0.17686510128E-01  0.22797786656E-01  0.00000000000E+00 0. -1.
     999901    1    3    3    0    0  0.72789553076E-01  0.24831090048E-02 -0.13039630322E+00  0.89258483113E+00  0.88000000000E+00 0.  1.
        -11    1    4    4    0    0 -0.24337438228E-01 -0.82701269311E-02  0.34295619958E-01  0.42862064442E-01  0.51100000000E-03 0.  1.
         11    1    4    4    0    0 -0.34067529998E-01  0.56862476942E-02  0.78414173131E-01  0.85685317773E-01  0.51100000000E-03 0. -1.
</event>
<event>
 8    1  0.1093753E+005  0.1043930E+01  0.7957747E-01            NaN
         13   -1    0    0    0    0  0.00000000000E+00  0.00000000000E+00  0.74505805969E-08  0.10566000000E+00  0.10566000000E+00 0. -1.
     999900   -1    0    0    0    0 -0.00000000000E+00 -0.00000000000E+00 -0.74505805969E-08  0.93827000000E+00  0.93827000000E+00 0.  1.
     999902    2    1    2    0    0  0.23520783187E-01 -0.54670562522E-02 -0.57195544062E-02  0.10191140928E+01  0.10188119085E+01 0.  0.
     999903    2    3    3    0    0  0.73636255478E-01 -0.10502122830E+00 -0.22339791362E-01  0.13192819010E+00  0.21312544470E-01 0.  0.
         14    1    1    2    0    0 -0.23520783187E-01  0.54670562522E-02  0.57195544062E-02  0.24815907165E-01  0.00000000000E+00 0. -1.
     999901    1    3    3    0    0 -0.50115472290E-01  0.99554172043E-01  0.16620236956E-01  0.88718590273E+00  0.88000000000E+00 0. -1.
        -11    1    4    4    0    0  0.51089382836E-01 -0.54542695480E-01 -0.13057236527E-01  0.75866878251E-01  0.51100000000E-03 0.  1.
         11    1    4    4    0    0  0.22546872642E-01 -0.50478532815E-01 -0.92825548351E-02  0.56061311850E-01  0.51100000000E-03 0. -1.
</event>
<event>
 8    1  0.1093753E+005  0.1043930E+01  0.7957747E-01            NaN
         13   -1    0    0    0    0  0.00000000000E+00  0.00000000000E+00  0.74505805969E-08  0.10566000000E+00  0.10566000000E+00 0.  1.
     999900   -1    0    0    0    0 -0.00000000000E+00 -0.00000000000E+00 -0.74505805969E-08  0.93827000000E+00  0.93827000000E+00 0.  1.
     999902    2    1    2    0    0 -0.95991135885E-02  0.99201660216E-02 -0.25354439537E-01  0.10150613270E+01  0.10146507268E+01 0.  0.
     999903    2    3    3    0    0 -0.73496046623E-01 -0.84872340169E-01  0.49829806770E-01  0.12448785550E+00  0.20229521216E-01 0.  0.
         14    1    1    2    0    0  0.95991135885E-02 -0.99201660216E-02  0.25354439537E-01  0.28868672983E-01  0.00000000000E+00 0.  1.
     999901    1    3    3    0    0  0.63896933034E-01  0.94792506191E-01 -0.75184246308E-01  0.89057347152E+00  0.88000000000E+00 0.  1.
        -11    1    4    4    0    0 -0.62232198685E-01 -0.69136264156E-01  0.32588304796E-01  0.98564335868E-01  0.51100000000E-03 0. -1.
         11    1    4    4    0    0 -0.11263847938E-01 -0.15736076013E-01  0.17241501974E-01  0.25923519630E-01  0.51100000000E-03 0.  1.
</event>
<event>
 8    1  0.1093753E+005  0.1043930E+01  0.7957747E-01            NaN
         13   -1    0    0    0    0  0.00000000000E+00  0.00000000000E+00  0.74505805969E-08  0.10566000000E+00  0.10566000000E+00 0.  1.
     999900   -1    0    0    0    0 -0.00000000000E+00 -0.00000000000E+00 -0.74505805969E-08  0.93827000000E+00  0.93827000000E+00 0.  1.
     999902    2    1    2    0    0  0.10113139696E-01 -0.19258721133E-01 -0.90278167376E-02  0.10203784521E+01  0.10201066170E+01 0.  0.
     999903    2    3    3    0    0 -0.80941136397E-01  0.26101513571E-01 -0.96283933728E-01  0.13023123839E+00  0.21373417779E-01 0.  0.
         14    1    1    2    0    0 -0.10113139696E-01  0.19258721133E-01  0.90278167376E-02  0.23551547916E-01  0.00000000000E+00 0. -1.
     999901    1    3    3    0    0  0.91054276094E-01 -0.45360234704E-01  0.87256116990E-01  0.89014721369E+00  0.88000000000E+00 0.  1.
        -11    1    4    4    0    0 -0.45089744548E-01  0.89837024503E-02 -0.37770814223E-01  0.59503676367E-01  0.51100000000E-03 0.  1.
         11    1    4    4    0    0 -0.35851391849E-01  0.17117811120E-01 -0.58513119505E-01  0.70727562027E-01  0.51100000000E-03 0. -1.
</event>
<event>
 8    1  0.1093753E+005  0.1043930E+01  0.7957747E-01            NaN
         13   -1    0    0    0    0  0.00000000000E+00  0.00000000000E+00  0.74505805969E-08  0.10566000000E+00  0.10566000000E+00 0.  1.
     999900   -1    0    0    0    0 -0.00000000000E+00 -0.00000000000E+00 -0.74505805969E-08  0.93827000000E+00  0.93827000000E+00 0. -1.
     999902    2    1    2    0    0  0.13096480156E-01  0.32110195788E-02 -0.19442156047E-01  0.10202693603E+01  0.10199949714E+01 0.  0.
     999903    2    3    3    0    0  0.46688727503E-01 -0.87438753505E-01 -0.86061417350E-01  0.13247211632E+00  0.17802279510E-01 0.  0.
         14    1    1    2    0    0 -0.13096480156E-01 -0.32110195788E-02  0.19442156047E-01  0.23660639699E-01  0.00000000000E+00 0.  1.
     999901    1    3    3    0    0 -0.33592247346E-01  0.90649773084E-01  0.66619261303E-01  0.88779724398E+00  0.88000000000E+00 0.  1.
        -11    1    4    4    0    0  0.23549685177E-01 -0.26541257681E-01 -0.27922012188E-01  0.45154467297E-01  0.51100000000E-03 0.  1.
         11    1    4    4    0    0  0.23139042325E-01 -0.60897495824E-01 -0.58139405162E-01  0.87317649024E-01  0.51100000000E-03 0. -1.
</event>
<event>
 8    1  0.1093753E+005  0.1043930E+01  0.7957747E-01            NaN
         13   -1    0    0    0    0  0.00000000000E+00  0.00000000000E+00  0.74505805969E-08  0.10566000000E+00  0.10566000000E+00 0.  1.
     999900   -1    0    0    0    0 -0.00000000000E+00 -0.00000000000E+00 -0.74505805969E-08  0.93827000000E+00  0.93827000000E+00 0. -1.
     999902    2    1    2    0    0 -0.12695280185E-01  0.13966291886E-01 -0.12613431328E-01  0.10212292049E+01  0.10209768670E+01 0.  0.
     999903    2    3    3    0    0  0.86982392651E-01 -0.32221098399E-01  0.87165015391E-01  0.12880293237E+00  0.19705828217E-01 0.  0.
         14    1    1    2    0    0  0.12695280185E-01 -0.13966291886E-01  0.12613431328E-01  0.22700795094E-01  0.00000000000E+00 0.  1.
     999901    1    3    3    0    0 -0.99677672837E-01  0.46187390285E-01 -0.99778446718E-01  0.89242627254E+00  0.88000000000E+00 0. -1.
        -11    1    4    4    0    0  0.26783486482E-01 -0.18929005871E-01  0.24916360019E-01  0.41191607507E-01  0.51100000000E-03 0. -1.
         11    1    4    4    0    0  0.60198906169E-01 -0.13292092528E-01  0.62248655371E-01  0.87611324863E-01  0.51100000000E-03 0.  1.
</event>
<event>
 8    1  0.1093753E+005  0.1043930E+01  0.7957747E-01            NaN
         13   -1    0    0    0    0  0.00000000000E+00  0.00000000000E+00  0.74505805969E-08  0.10566000000E+00  0.10566000000E+00 0. -1.
     999900   -1    0    0    0    0 -0.00000000000E+00 -0.00000000000E+00 -0.74505805969E-08  0.93827000000E+00  0.93827000000E+00 0. -1.
     999902    2    1    2    0    0 -0.20068409017E-01  0.11851782446E-01 -0.19655943460E-02  0.10205404864E+01  0.10202724219E+01 0.  0.
     999903    2    3    3    0    0 -0.51810517403E-01  0.10158325377E+00 -0.65727535778E-01  0.13311449870E+00  0.19896573672E-01 0.  0.
         14    1    1    2    0    0  0.20068409017E-01 -0.11851782446E-01  0.19655943460E-02  0.23389513649E-01  0.00000000000E+00 0.  1.
     999901    1    3    3    0    0  0.31742108386E-01 -0.89731471322E-01  0.63761941432E-01  0.88742598766E+00  0.88000000000E+00 0.  1.
        -11    1    4    4    0    0 -0.22493040481E-01  0.65176530030E-01 -0.37085032522E-01  0.78290980930E-01  0.51100000000E-03 0.  1.
         11    1    4    4    0    0 -0.29317476922E-01  0.36406723737E-01 -0.28642503257E-01  0.54823517765E-01  0.51100000000E-03 0. -1.
</event>
<event>
 8    1  0.1093753E+005  0.1043930E+01  0.7957747E-01            NaN
         13   -1    0    0    0    0  0.00000000000E+00  0.00000000000E+00  0.74505805969E-08  0.10566000000E+00  0.10566000000E+00 0.  1.
     999900   -1    0    0    0    0 -0.00000000000E+00 -0.00000000000E+00 -0.74505805969E-08  0.93827000000E+00  0.93827000000E+00 0.  1.
     999902    2    1    2    0    0  0.19624837714E-01 -0.10593619282E-01 -0.75580184570E-02  0.10203825443E+01  0.10201108048E+01 0.  0.
     999903    2    3    3    0    0  0.10480195008E+00 -0.79470094173E-01  0.92800705649E-02  0.13343123198E+00  0.20465320669E-01 0.  0.
         14    1    1    2    0    0 -0.19624837714E-01  0.10593619282E-01  0.75580184570E-02  0.23547455655E-01  0.00000000000E+00 0.  1.
     999901    1    3    3    0    0 -0.85177112364E-01  0.68876474891E-01 -0.16838089022E-01  0.88695131236E+00  0.88000000000E+00 0. -1.
        -11    1    4    4    0    0  0.53368388715E-01 -0.53121480226E-01  0.62240556919E-02  0.75558431467E-01  0.51100000000E-03 0. -1.
         11    1    4    4    0    0  0.51433561363E-01 -0.26348613947E-01  0.30560148730E-02  0.57872800514E-01  0.51100000000E-03 0.  1.
</event>
<event>
 8    1  0.1093753E+005  0.1043930E+01  0.7957747E-01            NaN
         13   -1    0    0    0    0  0.00000000000E+00  0.00000000000E+00  0.74505805969E-08  0.10566000000E+00  0.10566000000E+00 0. -1.
     999900   -1    0    0    0    0 -0.00000000000E+00 -0.00000000000E+00 -0.74505805969E-08  0.93827000000E+00  0.93827000000E+00 0. -1.
     999902    2    1    2    0    0  0.68354111345E-02 -0.17860311738E-01  0.14766808428E-01  0.10197686215E+01  0.10194823535E+01 0.  0.
     999903    2    3    3    0    0 -0.17569164906E-01 -0.54420747071E-01  0.11817969817E+00  0.13262349551E+00  0.18768517117E-01 0.  0.
         14    1    1    2    0    0 -0.68354111345E-02  0.17860311738E-01 -0.14766808428E-01  0.24161378519E-01  0.00000000000E+00 0.  1.
     999901    1    3    3    0    0  0.24404576040E-01  0.36560435333E-01 -0.10341288974E+00  0.88714512597E+00  0.88000000000E+00 0. -1.
        -11    1    4    4    0    0 -0.68865679669E-02 -0.36846151314E-01  0.58340380980E-01  0.69346412012E-01  0.51100000000E-03 0. -1.
         11    1    4    4    0    0 -0.10682596939E-01 -0.17574595757E-01  0.59839317193E-01  0.63277083502E-01  0.51100000000E-03 0.  1.
</event>
<event>
 8    1  0.1093753E+005  0.1043930E+01  0.7957747E-01            NaN
         13   -1    0    0    0    0  0.00000000000E+00  0.00000000000E+00  0.74505805969E-08  0.10566000000E+00  0.10566000000E+00 0. -1.
     999900   -1    0    0    0    0 -0.00000000000E+00 -0.00000000000E+00 -0.74505805969E-08  0.93827000000E+00  0.93827000000E+00 0.  1.
     999902    2    1    2    0    0  0.11798467555E-01  0.13510722540E-01  0.15503825691E-01  0.10202210972E+01  0.10199455746E+01 0.  0.
     999903    2    3    3    0    0  0.34692100012E-01  0.74024444246E-01  0.10345485739E+00  0.13347343700E+00  0.20714504986E-01 0.  0.
         14    1    1    2    0    0 -0.11798467555E-01 -0.13510722540E-01 -0.15503825691E-01  0.23708902785E-01  0.00000000000E+00 0.  1.
     999901    1    3    3    0    0 -0.22893632457E-01 -0.60513721705E-01 -0.87951031703E-01  0.88674766022E+00  0.88000000000E+00 0.  1.
        -11    1    4    4    0    0  0.24773335907E-01  0.49842410428E-01  0.54092644529E-01  0.77616102468E-01  0.51100000000E-03 0. -1.
         11    1    4    4    0    0  0.99187641049E-02  0.24182033817E-01  0.49362212865E-01  0.55857334531E-01  0.51100000000E-03 0.  1.
</event>
<event>
 8    1  0.1093753E+005  0.1043930E+01  0.7957747E-01            NaN
         13   -1    0    0    0    0  0.00000000000E+00  0.00000000000E+00  0.74505805969E-08  0.10566000000E+00  0.10566000000E+00 0. -1.
     999900   -1    0    0    0    0 -0.00000000000E+00 -0.00000000000E+00 -0.74505805969E-08  0.93827000000E+00  0.93827000000E+00 0. -1.
     999902    2    1    2    0    0  0.19753691263E-01 -0.94675145439E-02  0.79883232807E-02  0.10206135796E+01  0.10203472073E+01 0.  0.
     999903    2    3    3    0    0 -0.11477641237E-01  0.75150719587E-01 -0.10237858317E+00  0.12914485010E+00  0.20436514222E-01 0.  0.
         14    1    1    2    0    0 -0.19753691263E-01  0.94675145439E-02 -0.79883232807E-02  0.23316420372E-01  0.00000000000E+00 0. -1.
     999901    1    3    3    0    0  0.31231332500E-01 -0.84618234131E-01  0.11036690645E+00  0.89146872952E+00  0.88000000000E+00 0. -1.
        -11    1    4    4    0    0 -0.14522919959E-01  0.42613764106E-01 -0.48904432240E-01  0.66473699379E-01  0.51100000000E-03 0. -1.
         11    1    4    4    0    0  0.30452787215E-02  0.32536955482E-01 -0.53474150931E-01  0.62671150726E-01  0.51100000000E-03 0.  1.
</event>
<event>
 8    1  0.1093753E+005  0.1043930E+01  0.7957747E-01            NaN
         13   -1    0    0    0    0  0.00000000000E+00  0.00000000000E+00  0.74505805969E-08  0.10566000000E+00  0.10566000000E+00 0. -1.
     999900   -1    0    0    0    0 -0.00000000000E+00 -0.00000000000E+00 -0.74505805969E-08  0.93827000000E+00  0.93827000000E+00 0. -1.
     999902    2    1    2    0    0  0.12063342858E-02  0.19787026099E-01 -0.13771323816E-01  0.10197922494E+01  0.10195065478E+01 0.  0.
     999903    2    3    3    0    0 -0.65232306939E-01  0.80259527351E-01  0.77141225084E-01  0.13055881098E+00  0.19949659618E-01 0.  0.
         14    1    1    2    0    0 -0.12063342858E-02 -0.19787026099E-01  0.13771323816E-01  0.24137750597E-01  0.00000000000E+00 0. -1.
     999901    1    3    3    0    0  0.66438641225E-01 -0.60472501252E-01 -0.90912548900E-01  0.88923343842E+00  0.88000000000E+00 0. -1.
        -11    1    4    4    0    0 -0.15173192025E-01  0.20608230042E-01  0.30370976060E-01  0.39718789124E-01  0.51100000000E-03 0. -1.
         11    1    4    4    0    0 -0.50059114914E-01  0.59651297308E-01  0.46770249024E-01  0.90840021859E-01  0.51100000000E-03 0.  1.
</event>
<event>
 8    1  0.1093753E+005  0.1043930E+01  0.7957747E-01            NaN
         13   -1    0    0    0    0  0.00000000000E+00  0.00000000000E+00  0.74505805969E-08  0.10566000000E+00  0.10566000000E+00 0. -1.
     999900   -1    0    0    0    0 -0.00000000000E+00 -0.00000000000E+00 -0.74505805969E-08  0.93827000000E+00  0.93827000000E+00 0.  1.
     999902    2    1    2    0    0  0.15558722308E-01 -0.14318834927E-01  0.10867293311E-01  0.10201560450E+01  0.10198789905E+01 0.  0.
     999903    2    3    3    0    0  0.10809598327E+00  0.61217233860E-01  0.38850007769E-01  0.13164500134E+00  0.19717808045E-01 0.  0.
         14    1    1    2    0    0 -0.15558722308E-01  0.14318834927E-01 -0.10867293311E-01  0.23773955023E-01  0.00000000000E+00 0.  1.
     999901    1    3    3    0    0 -0.92537260962E-01 -0.75536068787E-01 -0.27982714458E-01  0.88851104364E+00  0.88000000000E+00 0.  1.
        -11    1    4    4    0    0  0.55500206253E-01  0.32046435146E-01  0.30310866470E-01  0.70896097544E-01  0.51100000000E-03 0. -1.
         11    1    4    4    0    0  0.52595777016E-01  0.29170798714E-01  0.85391412990E-02  0.60748903798E-01  0.51100000000E-03 0.  1.
</event>
<event>
 8    1  0.1093753E+005  0.1043930E+01  0.7957747E-01            NaN
         13   -1    0    0    0    0  0.00000000000E+00  0.00000000000E+00  0.74505805969E-08  0.10566000000E+00  0.10566000000E+00 0. -1.
     999900   -1    0    0    0    0 -0.00000000000E+00 -0.00000000000E+00 -0.74505805969E-08  0.93827000000E+00  0.93827000000E+00 0. -1.
     999902    2    1    2    0    0 -0.29436903649E-02  0.22165547848E-01  0.69762111174E-02  0.10205068417E+01  0.10202379965E+01 0.  0.
     999903    2    3    3    0    0 -0.99773884669E-01 -0.80105847977E-01 -0.94189602297E-02  0.12915711986E+00  0.14868418111E-01 0.  0.
         14    1    1    2    0    0  0.29436903649E-02 -0.22165547848E-01 -0.69762111174E-02  0.23423158325E-01  0.00000000000E+00 0.  1.
     999901    1    3    3    0    0  0.96830194304E-01  0.10227139582E+00  0.16395171347E-01  0.89134972181E+00  0.88000000000E+00 0. -1.
        -11    1    4    4    0    0 -0.37328264565E-01 -0.21981021000E-01 -0.63887115351E-02  0.43790882335E-01  0.51100000000E-03 0.  1.
         11    1    4    4    0    0 -0.62445620104E-01 -0.58124826976E-01 -0.30302486947E-02  0.85366237526E-01  0.51100000000E-03 0. -1.
</event>
<event>
 8    1  0.1093753E+005  0.1043930E+01  0.7957747E-01            NaN
         13   -1    0    0    0    0  0.00000000000E+00  0.00000000000E+00  0.74505805969E-08  0.10566000000E+00  0.10566000000E+00 0. -1.
     999900   -1    0    0    0    0 -0.00000000000E+00 -0.00000000000E+00 -0.74505805969E-08  0.93827000000E+00  0.93827000000E+00 0.  1.
     999902    2    1    2    0    0 -0.10432996414E-01 -0.15670999345E-01 -0.13424343639E-01  0.10208077026E+01  0.10205457976E+01 0.  0.
     999903    2    3    3    0    0  0.12069778474E+00 -0.32302465274E-01 -0.32245465666E-01  0.13073685034E+00  0.20998797003E-01 0.  0.
         14    1    1    2    0    0  0.10432996414E-01  0.15670999345E-01  0.13424343639E-01  0.23122297394E-01  0.00000000000E+00 0.  1.
     999901    1    3    3    0    0 -0.13113078116E+00  0.16631465929E-01  0.18821122027E-01  0.89007085227E+00  0.88000000000E+00 0.  1.
        -11    1    4    4    0    0  0.59619642219E-01 -0.10117049701E-01 -0.64398944855E-02  0.60816032384E-01  0.51100000000E-03 0.  1.
         11    1    4    4    0    0  0.61078142522E-01 -0.22185415573E-01 -0.25805571181E-01  0.69920817952E-01  0.51100000000E-03 0. -1.
</event>
<event>
 8    1  0.1093753E+005  0.1043930E+01  0.7957747E-01            NaN
         13   -1    0    0    0    0  0.00000000000E+00  0.00000000000E+00  0.74505805969E-08  0.10566000000E+00  0.10566000000E+00 0. -1.
     999900   -1    0    0    0    0 -0.00000000000E+00 -0.00000000000E+00 -0.74505805969E-08  0.93827000000E+00  0.93827000000E+00 0.  1.
     999902    2    1    2    0    0  0.18372581719E-01 -0.14717874278E-01 -0.45593337518E-02  0.10199517785E+01  0.10196698855E+01 0.  0.
     999903    2    3    3    0    0  0.87421457569E-01  0.82814331015E-01  0.45986871144E-01  0.13043775547E+00  0.19962241109E-01 0.  0.
         14    1    1    2    0    0 -0.18372581719E-01  0.14717874278E-01  0.45593337518E-02  0.23978221504E-01  0.00000000000E+00 0. -1.
     999901    1    3    3    0    0 -0.69048875850E-01 -0.97532205293E-01 -0.50546204896E-01  0.88951402302E+00  0.88000000000E+00 0.  1.
        -11    1    4    4    0    0  0.56049565958E-01  0.56988405293E-01  0.20686553504E-01  0.82567710389E-01  0.51100000000E-03 0.  1.
         11    1    4    4    0    0  0.31371891611E-01  0.25825925722E-01  0.25300317640E-01  0.47870045084E-01  0.51100000000E-03 0. -1.
</event>
<event>
 8    1  0.1093753E+005  0.1043930E+01  0.7957747E-01            NaN
         13   -1    0    0    0    0  0.00000000000E+00  0.00000000000E+00  0.74505805969E-08  0.10566000000E+00  0.10566000000E+00 0. -1.
     999900   -1    0    0    0    0 -0.00000000000E+00 -0.00000000000E+00 -0.74505805969E-08  0.93827000000E+00  0.93827000000E+00 0. -1.
     999902    2    1    2    0    0  0.12256560773E-01 -0.23030879850E-02 -0.20236402828E-01  0.10201594406E+01  0.10198824661E+01 0.  0.
     999903    2    3    3    0    0 -0.52544848886E-01  0.10413634852E+00  0.50255102986E-01  0.12858912437E+00  0.20105902149E-01 0.  0.
         14    1    1    2    0    0 -0.12256560773E-01  0.23030879850E-02  0.20236402828E-01  0.23770559432E-01  0.00000000000E+00 0. -1.
     999901    1    3    3    0    0  0.64801409659E-01 -0.10643943651E+00 -0.70491505814E-01  0.89157031620E+00  0.88000000000E+00 0. -1.
        -11    1    4    4    0    0 -0.14446294568E-02  0.18070769301E-01  0.55523908532E-02  0.18966544825E-01  0.51100000000E-03 0.  1.
         11    1    4    4    0    0 -0.51100219429E-01  0.86065579223E-01  0.44702712133E-01  0.10962257954E+00  0.51100000000E-03 0. -1.
</event>
<event>
 8    1  0.1093753E+005  0.1043930E+01  0.7957747E-01            NaN
         13   -1    0    0    0    0  0.00000000000E+00  0.00000000000E+00  0.74505805969E-08  0.10566000000E+00  0.10566000000E+00 0. -1.
     999900   -1    0    0    0    0 -0.00000000000E+00 -0.00000000000E+00 -0.74505805969E-08  0.93827000000E+00  0.93827000000E+00 0. -1.
     999902    2    1    2    0    0 -0.80867075176E-02  0.12685088410E-01 -0.29018383208E-01  0.10112440264E+01  0.10107156415E+01 0.  0.
     999903    2    3    3    0    0 -0.59955910329E-02 -0.13589153777E-01 -0.12331107017E+00  0.12581428927E+00  0.20074938233E-01 0.  0.
         14    1    1    2    0    0  0.80867075176E-02 -0.12685088410E-01  0.29018383208E-01  0.32685973605E-01  0.00000000000E+00 0. -1.
     999901    1    3    3    0    0 -0.20911164846E-02  0.26274242187E-01  0.94292686965E-01  0.88542973713E+00  0.88000000000E+00 0.  1.
        -11    1    4    4    0    0  0.21222229133E-03 -0.17514784243E-01 -0.81887562541E-01  0.83741547187E-01  0.51100000000E-03 0.  1.
         11    1    4    4    0    0 -0.62078133243E-02  0.39256304663E-02 -0.41423507632E-01  0.42072742083E-01  0.51100000000E-03 0. -1.
</event>
<event>
 8    1  0.1093753E+005  0.1043930E+01  0.7957747E-01            NaN
         13   -1    0    0    0    0  0.00000000000E+00  0.00000000000E+00  0.74505805969E-08  0.10566000000E+00  0.10566000000E+00 0. -1.
     999900   -1    0    0    0    0 -0.00000000000E+00 -0.00000000000E+00 -0.74505805969E-08  0.93827000000E+00  0.93827000000E+00 0.  1.
     999902    2    1    2    0    0  0.40029634816E-02 -0.15918214117E-01 -0.67624476611E-02  0.10261777056E+01  0.10260241418E+01 0.  0.
     999903    2    3    3    0    0 -0.23651856556E-02  0.11808982286E+00 -0.61559808910E-01  0.13432488251E+00  0.17400104043E-01 0.  0.
         14    1    1    2    0    0 -0.40029634816E-02  0.15918214117E-01  0.67624476611E-02  0.17752294378E-01  0.00000000000E+00 0.  1.
     999901    1    3    3    0    0  0.63681491371E-02 -0.13400803698E+00  0.54797361249E-01  0.89185282312E+00  0.88000000000E+00 0.  1.
        -11    1    4    4    0    0 -0.59264646158E-02  0.65786836363E-01 -0.42473571360E-01  0.78532134866E-01  0.51100000000E-03 0. -1.
         11    1    4    4    0    0  0.35612789603E-02  0.52302986499E-01 -0.19086237550E-01  0.55792747642E-01  0.51100000000E-03 0.  1.
</event>
<event>
 8    1  0.1093753E+005  0.1043930E+01  0.7957747E-01            NaN
         13   -1    0    0    0    0  0.00000000000E+00  0.00000000000E+00  0.74505805969E-08  0.10566000000E+00  0.10566000000E+00 0. -1.
     999900   -1    0    0    0    0 -0.00000000000E+00 -0.00000000000E+00 -0.74505805969E-08  0.93827000000E+00  0.93827000000E+00 0.  1.
     999902    2    1    2    0    0  0.47122602662E-02  0.49997836883E-02  0.22776705865E-01  0.10201396330E+01  0.10198621913E+01 0.  0.
     999903    2    3    3    0    0  0.17414145428E-01  0.63201500102E-01  0.11452461855E+00  0.13336657453E+00  0.19315094386E-01 0.  0.
         14    1    1    2    0    0 -0.47122602662E-02 -0.49997836883E-02 -0.22776705865E-01  0.23790367039E-01  0.00000000000E+00 0.  1.
     999901    1    3    3    0    0 -0.12701885162E-01 -0.58201716414E-01 -0.91747912685E-01  0.88677305843E+00  0.88000000000E+00 0.  1.
        -11    1    4    4    0    0  0.21208492348E-01  0.45689552212E-01  0.82357099727E-01  0.96541640371E-01  0.51100000000E-03 0. -1.
         11    1    4    4    0    0 -0.37943469203E-02  0.17511947890E-01  0.32167518824E-01  0.36824934158E-01  0.51100000000E-03 0.  1.
</event>
<event>
 8    1  0.1093753E+005  0.1043930E+01  0.7957747E-01            NaN
         13   -1    0    0    0    0  0.00000000000E+00  0.00000000000E+00  0.74505805969E-08  0.10566000000E+00  0.10566000000E+00 0. -1.
     999900   -1    0    0    0    0 -0.00000000000E+00 -0.00000000000E+00 -0.74505805969E-08  0.93827000000E+00  0.93827000000E+00 0. -1.
     999902    2    1    2    0    0 -0.45234783943E-02 -0.20588603713E-01 -0.11286261061E-01  0.10200190789E+01  0.10197387848E+01 0.  0.
     999903    2    3    3    0    0  0.44539257448E-01  0.31806581308E-01  0.11421876321E+00  0.12822094109E+00  0.19981986795E-01 0.  0.
         14    1    1    2    0    0  0.45234783943E-02  0.20588603713E-01  0.11286261061E-01  0.23910921111E-01  0.00000000000E+00 0. -1.
     999901    1    3    3    0    0 -0.49062735842E-01 -0.52395185022E-01 -0.12550502427E+00  0.89179813780E+00  0.88000000000E+00 0. -1.
        -11    1    4    4    0    0  0.11301328685E-01 -0.46856269769E-03  0.30540374270E-01  0.32571692658E-01  0.51100000000E-03 0. -1.
         11    1    4    4    0    0  0.33237928762E-01  0.32275144006E-01  0.83678388942E-01  0.95649248433E-01  0.51100000000E-03 0.  1.
</event>
<event>
 8    1  0.1093753E+005  0.1043930E+01  0.7957747E-01            NaN
         13   -1    0    0    0    0  0.00000000000E+00  0.00000000000E+00  0.74505805969E-08  0.10566000000E+00  0.10566000000E+00 0.  1.
     999900   -1    0    0    0    0 -0.00000000000E+00 -0.00000000000E+00 -0.74505805969E-08  0.93827000000E+00  0.93827000000E+00 0.  1.
     999902    2    1    2    0    0  0.11773976235E-01 -0.55785043262E-03 -0.20883907755E-01  0.10199492720E+01  0.10196673193E+01 0.  0.
     999903    2    3    3    0    0 -0.75554112646E-01  0.37797993833E-01  0.93287868445E-01  0.12746254357E+00  0.20173282802E-01 0.  0.
         14    1    1    2    0    0 -0.11773976235E-01  0.55785043262E-03  0.20883907755E-01  0.23980728025E-01  0.00000000000E+00 0.  1.
     999901    1    3    3    0    0  0.87328088881E-01 -0.38355844265E-01 -0.11417177620E+00  0.89248672840E+00  0.88000000000E+00 0.  1.
        -11    1    4    4    0    0 -0.52592187298E-01  0.17440149498E-01  0.51767807397E-01  0.75830495073E-01  0.51100000000E-03 0.  1.
         11    1    4    4    0    0 -0.22961925348E-01  0.20357844335E-01  0.41520061049E-01  0.51632048498E-01  0.51100000000E-03 0. -1.
</event>
<event>
 8    1  0.1093753E+005  0.1043930E+01  0.7957747E-01            NaN
         13   -1    0    0    0    0  0.00000000000E+00  0.00000000000E+00  0.74505805969E-08  0.10566000000E+00  0.10566000000E+00 0.  1.
     999900   -1    0    0    0    0 -0.00000000000E+00 -0.00000000000E+00 -0.74505805969E-08  0.93827000000E+00  0.93827000000E+00 0.  1.
     999902    2    1    2    0    0 -0.62815426873E-02  0.25645711346E-02 -0.23019222316E-01  0.10199316792E+01  0.10196493078E+01 0.  0.
     999903    2    3    3    0    0 -0.12873996264E+00 -0.11381894582E-01  0.40606038494E-02  0.13093005634E+00  0.20558833763E-01 0.  0.
         14    1    1    2    0    0  0.62815426873E-02 -0.25645711346E-02  0.23019222316E-01  0.23998320768E-01  0.00000000000E+00 0.  1.
     999901    1    3    3    0    0  0.12245841995E+00  0.13946465716E-01 -0.27079826165E-01  0.88900162289E+00  0.88000000000E+00 0.  1.
        -11    1    4    4    0    0 -0.11373238608E+00 -0.39445998426E-02  0.52076408846E-03  0.11380310992E+00  0.51100000000E-03 0. -1.
         11    1    4    4    0    0 -0.15007576559E-01 -0.74372947392E-02  0.35398397609E-02  0.17126946422E-01  0.51100000000E-03 0.  1.
</event>
<event>
 8    1  0.1093753E+005  0.1043930E+01  0.7957747E-01            NaN
         13   -1    0    0    0    0  0.00000000000E+00  0.00000000000E+00  0.74505805969E-08  0.10566000000E+00  0.10566000000E+00 0.  1.
     999900   -1    0    0    0    0 -0.00000000000E+00 -0.00000000000E+00 -0.74505805969E-08  0.93827000000E+00  0.93827000000E+00 0.  1.
     999902    2    1    2    0    0  0.12957087506E-01  0.17416605658E-01 -0.76309175492E-02  0.10209201071E+01  0.10206607712E+01 0.  0.
     999903    2    3    3    0    0 -0.13204015136E-01 -0.12241640413E+00 -0.32750190658E-01  0.12914174236E+00  0.21092477693E-01 0.  0.
         14    1    1    2    0    0 -0.12957087506E-01 -0.17416605658E-01  0.76309175492E-02  0.23009892914E-01  0.00000000000E+00 0.  1.
     999901    1    3    3    0    0  0.26161102642E-01  0.13983300979E+00  0.25119273109E-01  0.89177836473E+00  0.88000000000E+00 0. -1.
        -11    1    4    4    0    0  0.16828731991E-02 -0.78996269917E-01 -0.20652901283E-01  0.81670350651E-01  0.51100000000E-03 0. -1.
         11    1    4    4    0    0 -0.14886888335E-01 -0.43420134212E-01 -0.12097289374E-01  0.47471391706E-01  0.51100000000E-03 0.  1.
</event>
<event>
 8    1  0.1093753E+005  0.1043930E+01  0.7957747E-01            NaN
         13   -1    0    0    0    0  0.00000000000E+00  0.00000000000E+00  0.74505805969E-08  0.10566000000E+00  0.10566000000E+00 0.  1.
     999900   -1    0    0    0    0 -0.00000000000E+00 -0.00000000000E+00 -0.74505805969E-08  0.93827000000E+00  0.93827000000E+00 0.  1.
     999902    2    1    2    0    0  0.70904484385E-02  0.21979234793E-01  0.47481067348E-02  0.10203523466E+01  0.10200799015E+01 0.  0.
     999903    2    3    3    0    0 -0.19125243567E-01  0.15258544136E-01 -0.12633517376E+00  0.13023142416E+00  0.20026222736E-01 0.  0.
         14    1    1    2    0    0 -0.70904484385E-02 -0.21979234793E-01 -0.47481067348E-02  0.23577653376E-01  0.00000000000E+00 0. -1.
     999901    1    3    3    0    0  0.26215692006E-01  0.67206906573E-02  0.13108328050E+00  0.89012092247E+00  0.88000000000E+00 0. -1.
        -11    1    4    4    0    0 -0.70360230352E-02  0.17219219243E-01 -0.61732441491E-01  0.64476062108E-01  0.51100000000E-03 0. -1.
         11    1    4    4    0    0 -0.12089220532E-01 -0.19606751073E-02 -0.64602732272E-01  0.65755362048E-01  0.51100000000E-03 0.  1.
</event>
<event>
 8    1  0.1093753E+005  0.1043930E+01  0.7957747E-01            NaN
         13   -1    0    0    0    0  0.00000000000E+00  0.00000000000E+00  0.74505805969E-08  0.10566000000E+00  0.10566000000E+00 0.  1.
     999900   -1    0    0    0    0 -0.00000000000E+00 -0.00000000000E+00 -0.74505805969E-08  0.93827000000E+00  0.93827000000E+00 0. -1.
     999902    2    1    2    0    0 -0.13008522116E-01  0.18092020632E-02  0.19669990871E-01  0.10202782897E+01  0.10200041103E+01 0.  0.
     999903    2    3    3    0    0 -0.63381283443E-01  0.74950231045E-01 -0.82645098331E-01  0.12991016207E+00  0.20290729560E-01 0.  0.
         14    1    1    2    0    0  0.13008522116E-01 -0.18092020632E-02 -0.19669990871E-01  0.23651710310E-01  0.00000000000E+00 0. -1.
     999901    1    3    3    0    0  0.50372761327E-01 -0.73141028982E-01  0.10231508920E+00  0.89036812762E+00  0.88000000000E+00 0.  1.
        -11    1    4    4    0    0 -0.14876278622E-03  0.48188162386E-02 -0.87521477753E-02  0.10005215239E-01  0.51100000000E-03 0. -1.
         11    1    4    4    0    0 -0.63232520657E-01  0.70131414807E-01 -0.73892950556E-01  0.11990494683E+00  0.51100000000E-03 0.  1.
</event>
<event>
 8    1  0.1093753E+005  0.1043930E+01  0.7957747E-01            NaN
         13   -1    0    0    0    0  0.00000000000E+00  0.00000000000E+00  0.74505805969E-08  0.10566000000E+00  0.10566000000E+00 0.  1.
     999900   -1    0    0    0    0 -0.00000000000E+00 -0.00000000000E+00 -0.74505805969E-08  0.93827000000E+00  0.93827000000E+00 0. -1.
     999902    2    1    2    0    0 -0.19918801688E-02  0.15826411055E-01 -0.20315889462E-01  0.10181002064E+01  0.10177724952E+01 0.  0.
     999903    2    3    3    0    0  0.71672315227E-02 -0.95502077157E-01  0.78561953798E-01  0.12554502630E+00  0.20434213825E-01 0.  0.
         14    1    1    2    0    0  0.19918801688E-02 -0.15826411055E-01  0.20315889462E-01  0.25829793614E-01  0.00000000000E+00 0.  1.
     999901    1    3    3    0    0 -0.91591116916E-02  0.11132848821E+00 -0.98877843261E-01  0.89255518009E+00  0.88000000000E+00 0. -1.
        -11    1    4    4    0    0  0.96211596512E-02 -0.62970100628E-01  0.40842400641E-01  0.75671415325E-01  0.51100000000E-03 0.  1.
         11    1    4    4    0    0 -0.24539281285E-02 -0.32531976528E-01  0.37719553157E-01  0.49873610973E-01  0.51100000000E-03 0. -1.
</event>
<event>
 8    1  0.1093753E+005  0.1043930E+01  0.7957747E-01            NaN
         13   -1    0    0    0    0  0.00000000000E+00  0.00000000000E+00  0.74505805969E-08  0.10566000000E+00  0.10566000000E+00 0.  1.
     999900   -1    0    0    0    0 -0.00000000000E+00 -0.00000000000E+00 -0.74505805969E-08  0.93827000000E+00  0.93827000000E+00 0.  1.
     999902    2    1    2    0    0  0.27643962025E-02 -0.12114479554E-01 -0.19506090391E-01  0.10208023096E+01  0.10205402810E+01 0.  0.
     999903    2    3    3    0    0 -0.84105285036E-01 -0.72445468638E-01  0.65641313146E-01  0.13038878202E+00  0.19245975868E-01 0.  0.
         14    1    1    2    0    0 -0.27643962025E-02  0.12114479554E-01  0.19506090391E-01  0.23127690407E-01  0.00000000000E+00 0.  1.
     999901    1    3    3    0    0  0.86869681238E-01  0.60330989083E-01 -0.85147403536E-01  0.89041352758E+00  0.88000000000E+00 0.  1.
        -11    1    4    4    0    0 -0.52095335947E-01 -0.52121059080E-01  0.34740080812E-01  0.81471855035E-01  0.51100000000E-03 0. -1.
         11    1    4    4    0    0 -0.32009949089E-01 -0.20324409558E-01  0.30901232334E-01  0.48916926982E-01  0.51100000000E-03 0.  1.
</event>
<event>
 7    1  0.1093753E+005  0.1043930E+01  0.7957747E-01            NaN
         13   -1    0    0    0    0  0.00000000000E+00  0.00000000000E+00  0.74505805969E-08  0.10566000000E+00  0.10566000000E+00 0. -1.
     999900   -1    0    0    0    0 -0.00000000000E+00 -0.00000000000E+00 -0.74505805969E-08  0.93827000000E+00  0.93827000000E+00 0.  1.
     999902    2    1    2    0    0 -0.12534453120E-02 -0.75130937403E-02  0.21957348314E-01  0.10206890265E+01  0.10204243951E+01 0.  0.
         14    1    1    2    0    0  0.12534453120E-02  0.75130937403E-02 -0.21957348314E-01  0.23240973467E-01  0.00000000000E+00 0.  1.
     999901    1    3    3    0    0 -0.30181291171E-01  0.11614555788E+00  0.17710742608E-01  0.88832109699E+00  0.88000000000E+00 0.  1.
        -11    1    3    3    0    0  0.28427199845E-01 -0.42918110259E-01 -0.51498727138E-03  0.51483941303E-01  0.51100000000E-03 0.  1.
         11    1    3    3    0    0  0.50064601380E-03 -0.80740541357E-01  0.47615929773E-02  0.80883988241E-01  0.51100000000E-03 0. -1.
</event>
<event>
 8    1  0.1093753E+005  0.1043930E+01  0.7957747E-01            NaN
         13   -1    0    0    0    0  0.00000000000E+00  0.00000000000E+00  0.74505805969E-08  0.10566000000E+00  0.10566000000E+00 0.  1.
     999900   -1    0    0    0    0 -0.00000000000E+00 -0.00000000000E+00 -0.74505805969E-08  0.93827000000E+00  0.93827000000E+00 0.  1.
     999902    2    1    2    0    0  0.82650686290E-03  0.17872532959E-01  0.16265729976E-01  0.10197497494E+01  0.10194630287E+01 0.  0.
     999903    2    3    3    0    0 -0.15408143738E-01 -0.43793651381E-01 -0.11698620560E+00  0.12743682193E+00  0.19976898874E-01 0.  0.
         14    1    1    2    0    0 -0.82650686290E-03 -0.17872532959E-01 -0.16265729976E-01  0.24180250611E-01  0.00000000000E+00 0.  1.
     999901    1    3    3    0    0  0.16234650601E-01  0.61666184340E-01  0.13325193558E+00  0.89231292746E+00  0.88000000000E+00 0. -1.
        -11    1    4    4    0    0  0.45060541479E-02 -0.41494410328E-02 -0.15622937785E-01  0.16788677461E-01  0.51100000000E-03 0.  1.
         11    1    4    4    0    0 -0.19914197886E-01 -0.39644210348E-01 -0.10136326782E+00  0.11064814447E+00  0.51100000000E-03 0. -1.
</event>
<event>
 8    1  0.1093753E+005  0.1043930E+01  0.7957747E-01            NaN
         13   -1    0    0    0    0  0.00000000000E+00  0.00000000000E+00  0.74505805969E-08  0.10566000000E+00  0.10566000000E+00 0. -1.
     999900   -1    0    0    0    0 -0.00000000000E+00 -0.00000000000E+00 -0.74505805969E-08  0.93827000000E+00  0.93827000000E+00 0. -1.
     999902    2    1    2    0    0 -0.37737816351E-02 -0.23641952973E-01 -0.68580210287E-03  0.10199789313E+01  0.10196976839E+01 0.  0.
     999903    2    3    3    0    0  0.75178940332E-01 -0.39758518331E-01  0.97465415073E-01  0.13086311351E+00  0.19825097531E-01 0.  0.
         14    1    1    2    0    0  0.37737816351E-02  0.23641952973E-01  0.68580210287E-03  0.23951068718E-01  0.00000000000E+00 0.  1.
     999901    1    3    3    0    0 -0.78952721967E-01  0.16116565358E-01 -0.98151217176E-01  0.88911581778E+00  0.88000000000E+00 0.  1.
        -11    1    4    4    0    0  0.30617572932E-01 -0.24574558339E-01  0.34675525233E-01  0.52383182998E-01  0.51100000000E-03 0. -1.
         11    1    4    4    0    0  0.44561367400E-01 -0.15183959991E-01  0.62789889841E-01  0.78479930510E-01  0.51100000000E-03 0.  1.
</event>
<event>
 8    1  0.1093753E+005  0.1043930E+01  0.7957747E-01            NaN
         13   -1    0    0    0    0  0.00000000000E+00  0.00000000000E+00  0.74505805969E-08  0.10566000000E+00  0.10566000000E+00 0.  1.
     999900   -1    0    0    0    0 -0.00000000000E+00 -0.00000000000E+00 -0.74505805969E-08  0.93827000000E+00  0.93827000000E+00 0. -1.
     999902    2    1    2    0    0  0.62819621777E-02 -0.11306628359E-01 -0.19769121516E-01  0.10203054141E+01  0.10200318706E+01 0.  0.
     999903    2    3    3    0    0  0.52588686831E-01  0.11675269126E+00 -0.71470602485E-03  0.12962782212E+00  0.20151936996E-01 0.  0.
         14    1    1    2    0    0 -0.62819621777E-02  0.11306628359E-01  0.19769121516E-01  0.23624585905E-01  0.00000000000E+00 0.  1.
     999901    1    3    3    0    0 -0.46306724653E-01 -0.12805931962E+00 -0.19054415491E-01  0.89067759197E+00  0.88000000000E+00 0. -1.
        -11    1    4    4    0    0  0.22731873267E-01  0.73883417768E-01  0.17869158491E-02  0.77323681189E-01  0.51100000000E-03 0.  1.
         11    1    4    4    0    0  0.29856813564E-01  0.42869273493E-01 -0.25016218740E-02  0.52304140936E-01  0.51100000000E-03 0. -1.
</event>
<event>
 8    1  0.1093753E+005  0.1043930E+01  0.7957747E-01            NaN
         13   -1    0    0    0    0  0.00000000000E+00  0.00000000000E+00  0.74505805969E-08  0.10566000000E+00  0.10566000000E+00 0.  1.
     999900   -1    0    0    0    0 -0.00000000000E+00 -0.00000000000E+00 -0.74505805969E-08  0.93827000000E+00  0.93827000000E+00 0.  1.
     999902    2    1    2    0    0 -0.98184364773E-02 -0.19695013740E-01  0.86366364676E-02  0.10202892143E+01  0.10200152911E+01 0.  0.
     999903    2    3    3    0    0 -0.84873499338E-01 -0.82357926309E-01 -0.56212063902E-01  0.13250249606E+00  0.20267619925E-01 0.  0.
         14    1    1    2    0    0  0.98184364773E-02  0.19695013740E-01 -0.86366364676E-02  0.23640785743E-01  0.00000000000E+00 0. -1.
     999901    1    3    3    0    0  0.75055062861E-01  0.62662912569E-01  0.64848700370E-01  0.88778671820E+00  0.88000000000E+00 0.  1.
        -11    1    4    4    0    0 -0.55593633292E-01 -0.46689789238E-01 -0.24980070438E-01  0.76777949450E-01  0.51100000000E-03 0. -1.
         11    1    4    4    0    0 -0.29279866046E-01 -0.35668137071E-01 -0.31231993464E-01  0.55724546607E-01  0.51100000000E-03 0.  1.
</event>
<event>
 8    1  0.1093753E+005  0.1043930E+01  0.7957747E-01            NaN
         13   -1    0    0    0    0  0.00000000000E+00  0.00000000000E+00  0.74505805969E-08  0.10566000000E+00  0.10566000000E+00 0.  1.
     999900   -1    0    0    0    0 -0.00000000000E+00 -0.00000000000E+00 -0.74505805969E-08  0.93827000000E+00  0.93827000000E+00 0. -1.
     999902    2    1    2    0    0  0.22329128028E-01  0.68980612487E-02 -0.26437747882E-02  0.10204105877E+01  0.10201395026E+01 0.  0.
     999903    2    3    3    0    0 -0.32634044849E-01 -0.53872205745E-01 -0.11185765426E+00  0.12988172960E+00  0.19746732213E-01 0.  0.
         14    1    1    2    0    0 -0.22329128028E-01 -0.68980612487E-02  0.26437747882E-02  0.23519412251E-01  0.00000000000E+00 0.  1.
     999901    1    3    3    0    0  0.54963172878E-01  0.60770266993E-01  0.10921387947E+00  0.89052885815E+00  0.88000000000E+00 0.  1.
        -11    1    4    4    0    0 -0.22628089251E-01 -0.31724877263E-01 -0.85857890159E-01  0.94288581939E-01  0.51100000000E-03 0. -1.
         11    1    4    4    0    0 -0.10005955598E-01 -0.22147328482E-01 -0.25999764100E-01  0.35593147664E-01  0.51100000000E-03 0.  1.
</event>
<event>
 8    1  0.1093753E+005  0.1043930E+01  0.7957747E-01            NaN
         13   -1    0    0    0    0  0.00000000000E+00  0.00000000000E+00  0.74505805969E-08  0.10566000000E+00  0.10566000000E+00 0. -1.
     999900   -1    0    0    0    0 -0.00000000000E+00 -0.00000000000E+00 -0.74505805969E-08  0.93827000000E+00  0.93827000000E+00 0. -1.
     999902    2    1    2    0    0  0.16237644218E-01  0.14417298817E-01 -0.96200825489E-02  0.10201799351E+01  0.10199034437E+01 0.  0.
     999903    2    3    3    0    0 -0.22746572542E-01 -0.12469839322E+00 -0.74158111812E-02  0.12839643909E+00  0.19067130950E-01 0.  0.
         14    1    1    2    0    0 -0.16237644218E-01 -0.14417298817E-01  0.96200825489E-02  0.23750064909E-01  0.00000000000E+00 0. -1.
     999901    1    3    3    0    0  0.38984216760E-01  0.13911569203E+00 -0.22042713677E-02  0.89178349600E+00  0.88000000000E+00 0. -1.
        -11    1    4    4    0    0 -0.13804377230E-01 -0.49628981686E-01  0.50929586085E-02  0.51766746105E-01  0.51100000000E-03 0. -1.
         11    1    4    4    0    0 -0.89421953114E-02 -0.75069411530E-01 -0.12508769790E-01  0.76629692985E-01  0.51100000000E-03 0.  1.
</event>
<event>
 8    1  0.1093753E+005  0.1043930E+01  0.7957747E-01            NaN
         13   -1    0    0    0    0  0.00000000000E+00  0.00000000000E+00  0.74505805969E-08  0.10566000000E+00  0.10566000000E+00 0.  1.
     999900   -1    0    0    0    0 -0.00000000000E+00 -0.00000000000E+00 -0.74505805969E-08  0.93827000000E+00  0.93827000000E+00 0. -1.
     999902    2    1    2    0    0  0.16223722301E-01  0.12999378421E-01 -0.11978443868E-01  0.10199367484E+01  0.10196544977E+01 0.  0.
     999903    2    3    3    0    0 -0.11156563924E+00  0.32390166215E-01  0.50636232641E-01  0.12829403897E+00  0.19982934024E-01 0.  0.
         14    1    1    2    0    0 -0.16223722301E-01 -0.12999378421E-01  0.11978443868E-01  0.23993251596E-01  0.00000000000E+00 0.  1.
     999901    1    3    3    0    0  0.12778936154E+00 -0.19390787794E-01 -0.62614676509E-01  0.89164270944E+00  0.88000000000E+00 0.  1.
        -11    1    4    4    0    0 -0.48436876856E-01  0.84014216233E-02  0.30357798300E-01  0.57780376976E-01  0.51100000000E-03 0.  1.
         11    1    4    4    0    0 -0.63128762385E-01  0.23988744592E-01  0.20278434341E-01  0.70513661993E-01  0.51100000000E-03 0. -1.
</event>
<event>
 8    1  0.1093753E+005  0.1043930E+01  0.7957747E-01            NaN
         13   -1    0    0    0    0  0.00000000000E+00  0.00000000000E+00  0.74505805969E-08  0.10566000000E+00  0.10566000000E+00 0. -1.
     999900   -1    0    0    0    0 -0.00000000000E+00 -0.00000000000E+00 -0.74505805969E-08  0.93827000000E+00  0.93827000000E+00 0. -1.
     999902    2    1    2    0    0  0.39506526837E-02 -0.97145599163E-03 -0.23298231540E-01  0.10202792288E+01  0.10200050715E+01 0.  0.
     999903    2    3    3    0    0 -0.10691106127E+00  0.70210464329E-02 -0.71988027184E-01  0.13195220803E+00  0.27383188833E-01 0.  0.
         14    1    1    2    0    0 -0.39506526837E-02  0.97145599163E-03  0.23298231540E-01  0.23650771156E-01  0.00000000000E+00 0. -1.
     999901    1    3    3    0    0  0.11086171395E+00 -0.79925024245E-02  0.48689795644E-01  0.88832702082E+00  0.88000000000E+00 0. -1.
        -11    1    4    4    0    0 -0.73831304214E-01 -0.32807751968E-02 -0.36776085071E-01  0.82550387776E-01  0.51100000000E-03 0.  1.
         11    1    4    4    0    0 -0.33079757054E-01  0.10301821630E-01 -0.35211942114E-01  0.49401820250E-01  0.51100000000E-03 0. -1.
</event>
<event>
 8    1  0.1093753E+005  0.1043930E+01  0.7957747E-01            NaN
         13   -1    0    0    0    0  0.00000000000E+00  0.00000000000E+00  0.74505805969E-08  0.10566000000E+00  0.10566000000E+00 0.  1.
     999900   -1    0    0    0    0 -0.00000000000E+00 -0.00000000000E+00 -0.74505805969E-08  0.93827000000E+00  0.93827000000E+00 0. -1.
     999902    2    1    2    0    0  0.95840898316E-03  0.33085711329E-02 -0.23502549241E-01  0.10201763685E+01  0.10198997930E+01 0.  0.
     999903    2    3    3    0    0 -0.72298383520E-01 -0.79604863666E-01 -0.73628946307E-01  0.13183305025E+00  0.19868085591E-01 0.  0.
         14    1    1    2    0    0 -0.95840898316E-03 -0.33085711329E-02  0.23502549241E-01  0.23753631545E-01  0.00000000000E+00 0.  1.
     999901    1    3    3    0    0  0.73256792503E-01  0.82913434799E-01  0.50126397065E-01  0.88834331821E+00  0.88000000000E+00 0.  1.
        -11    1    4    4    0    0 -0.31982432633E-01 -0.28500170868E-01 -0.39785698184E-01  0.58466217918E-01  0.51100000000E-03 0.  1.
         11    1    4    4    0    0 -0.40315950887E-01 -0.51104692799E-01 -0.33843248122E-01  0.73366832332E-01  0.51100000000E-03 0. -1.
</event>
<event>
 8    1  0.1093753E+005  0.1043930E+01  0.7957747E-01            NaN
         13   -1    0    0    0    0  0.00000000000E+00  0.00000000000E+00  0.74505805969E-08  0.10566000000E+00  0.10566000000E+00 0. -1.
     999900   -1    0    0    0    0 -0.00000000000E+00 -0.00000000000E+00 -0.74505805969E-08  0.93827000000E+00  0.93827000000E+00 0.  1.
     999902    2    1    2    0    0 -0.73965394219E-02 -0.23637443298E-01  0.81070029337E-02  0.10178692821E+01  0.10175356084E+01 0.  0.
     999903    2    3    3    0    0 -0.12567318683E+00 -0.21993095808E-01  0.12724845407E-01  0.12994282474E+00  0.21113262657E-01 0.  0.
         14    1    1    2    0    0  0.73965394219E-02  0.23637443298E-01 -0.81070029337E-02  0.26060717904E-01  0.00000000000E+00 0. -1.
     999901    1    3    3    0    0  0.11827664741E+00 -0.16443474901E-02 -0.46178424734E-02  0.88792645735E+00  0.88000000000E+00 0.  1.
        -11    1    4    4    0    0 -0.10539665974E+00 -0.26192980300E-01  0.10894531320E-01  0.10914888930E+00  0.51100000000E-03 0. -1.
         11    1    4    4    0    0 -0.20276527090E-01  0.41998844920E-02  0.18303140870E-02  0.20793935443E-01  0.51100000000E-03 0.  1.
</event>
<event>
 8    1  0.1093753E+005  0.1043930E+01  0.7957747E-01            NaN
         13   -1    0    0    0    0  0.00000000000E+00  0.00000000000E+00  0.74505805969E-08  0.10566000000E+00  0.10566000000E+00 0. -1.
     999900   -1    0    0    0    0 -0.00000000000E+00 -0.00000000000E+00 -0.74505805969E-08  0.93827000000E+00  0.93827000000E+00 0.  1.
     999902    2    1    2    0    0  0.31470021800E-02  0.22251488663E-01  0.66684365343E-02  0.10204885748E+01  0.10202193053E+01 0.  0.
     999903    2    3    3    0    0  0.46531493174E-01  0.77697319950E-01 -0.93775100666E-01  0.13198119809E+00  0.20572159840E-01 0.  0.
         14    1    1    2    0    0 -0.31470021800E-02 -0.22251488663E-01 -0.66684365343E-02  0.23441425218E-01  0.00000000000E+00 0.  1.
     999901    1    3    3    0    0 -0.43384490994E-01 -0.55445831287E-01  0.10044353720E+00  0.88850737669E+00  0.88000000000E+00 0. -1.
        -11    1    4    4    0    0  0.23797823270E-01  0.56555770252E-01 -0.55897907805E-01  0.83004390000E-01  0.51100000000E-03 0.  1.
         11    1    4    4    0    0  0.22733669904E-01  0.21141549698E-01 -0.37877192861E-01  0.48976808093E-01  0.51100000000E-03 0. -1.
</event>
<event>
 8    1  0.1093753E+005  0.1043930E+01  0.7957747E-01            NaN
         13   -1    0    0    0    0  0.00000000000E+00  0.00000000000E+00  0.74505805969E-08  0.10566000000E+00  0.10566000000E+00 0. -1.
     999900   -1    0    0    0    0 -0.00000000000E+00 -0.00000000000E+00 -0.74505805969E-08  0.93827000000E+00  0.93827000000E+00 0. -1.
     999902    2    1    2    0    0  0.15273545220E-01 -0.13008607130E-01 -0.10842089141E-01  0.10211252650E+01  0.10208705848E+01 0.  0.
     999903    2    3    3    0    0  0.73748421113E-01 -0.10663237684E+00 -0.27654420078E-01  0.13406981245E+00  0.20016349655E-01 0.  0.
         14    1    1    2    0    0 -0.15273545220E-01  0.13008607130E-01  0.10842089141E-01  0.22804735035E-01  0.00000000000E+00 0.  1.
     999901    1    3    3    0    0 -0.58474875893E-01  0.93623769709E-01  0.16812330937E-01  0.88705545252E+00  0.88000000000E+00 0.  1.
        -11    1    4    4    0    0  0.14231104397E-01 -0.31983180714E-01 -0.13351399443E-02  0.35035580495E-01  0.51100000000E-03 0. -1.
         11    1    4    4    0    0  0.59517316716E-01 -0.74649196126E-01 -0.26319280133E-01  0.99034231956E-01  0.51100000000E-03 0.  1.
</event>
<event>
 8    1  0.1093753E+005  0.1043930E+01  0.7957747E-01            NaN
         13   -1    0    0    0    0  0.00000000000E+00  0.00000000000E+00  0.74505805969E-08  0.10566000000E+00  0.10566000000E+00 0. -1.
     999900   -1    0    0    0    0 -0.00000000000E+00 -0.00000000000E+00 -0.74505805969E-08  0.93827000000E+00  0.93827000000E+00 0.  1.
     999902    2    1    2    0    0 -0.24570556246E-01  0.39130697036E-02 -0.25407896071E-01  0.10083689886E+01  0.10077417485E+01 0.  0.
     999903    2    3    3    0    0  0.71477966357E-01 -0.51235392098E-01  0.74621479499E-01  0.11580383831E+00  0.10392241714E-01 0.  0.
         14    1    1    2    0    0  0.24570556246E-01 -0.39130697036E-02  0.25407896071E-01  0.35561011396E-01  0.00000000000E+00 0. -1.
     999901    1    3    3    0    0 -0.96048522603E-01  0.55148461802E-01 -0.10002937557E+00  0.89256515029E+00  0.88000000000E+00 0. -1.
        -11    1    4    4    0    0  0.33505974471E-01 -0.28129013215E-01  0.31856710549E-01  0.54120262728E-01  0.51100000000E-03 0.  1.
         11    1    4    4    0    0  0.37971991886E-01 -0.23106378883E-01  0.42764768950E-01  0.61683575587E-01  0.51100000000E-03 0. -1.
</event>
<event>
 8    1  0.1093753E+005  0.1043930E+01  0.7957747E-01            NaN
         13   -1    0    0    0    0  0.00000000000E+00  0.00000000000E+00  0.74505805969E-08  0.10566000000E+00  0.10566000000E+00 0.  1.
     999900   -1    0    0    0    0 -0.00000000000E+00 -0.00000000000E+00 -0.74505805969E-08  0.93827000000E+00  0.93827000000E+00 0. -1.
     999902    2    1    2    0    0 -0.50422249849E-02 -0.91499522189E-02 -0.21004105380E-01  0.10204711402E+01  0.10202014654E+01 0.  0.
     999903    2    3    3    0    0 -0.96580977490E-01 -0.68020354037E-01  0.52605588306E-01  0.13071642436E+00  0.19099264414E-01 0.  0.
         14    1    1    2    0    0  0.50422249849E-02  0.91499522189E-02  0.21004105380E-01  0.23458859760E-01  0.00000000000E+00 0.  1.
     999901    1    3    3    0    0  0.91538752505E-01  0.58870401818E-01 -0.73609693686E-01  0.88975471588E+00  0.88000000000E+00 0. -1.
        -11    1    4    4    0    0 -0.32208894783E-01 -0.31632796063E-01  0.26185833926E-01  0.52192008099E-01  0.51100000000E-03 0.  1.
         11    1    4    4    0    0 -0.64372082707E-01 -0.36387557973E-01  0.26419754380E-01  0.78524416265E-01  0.51100000000E-03 0. -1.
</event>
<event>
 8    1  0.1093753E+005  0.1043930E+01  0.7957747E-01            NaN
         13   -1    0    0    0    0  0.00000000000E+00  0.00000000000E+00  0.74505805969E-08  0.10566000000E+00  0.10566000000E+00 0. -1.
     999900   -1    0    0    0    0 -0.00000000000E+00 -0.00000000000E+00 -0.74505805969E-08  0.93827000000E+00  0.93827000000E+00 0. -1.
     999902    2    1    2    0    0  0.66316535592E-02 -0.12203630517E-02  0.22775211946E-01  0.10201775602E+01  0.10199010129E+01 0.  0.
     999903    2    3    3    0    0  0.90159679256E-01 -0.80727821485E-01  0.49521396131E-01  0.13225091610E+00  0.19803717050E-01 0.  0.
         14    1    1    2    0    0 -0.66316535592E-02  0.12203630517E-02 -0.22775211946E-01  0.23752439751E-01  0.00000000000E+00 0.  1.
     999901    1    3    3    0    0 -0.83528025697E-01  0.79507458433E-01 -0.26746184185E-01  0.88792664415E+00  0.88000000000E+00 0. -1.
        -11    1    4    4    0    0  0.90336325738E-01 -0.78639660929E-01  0.46374234115E-01  0.12843550416E+00  0.51100000000E-03 0. -1.
         11    1    4    4    0    0 -0.17664648150E-03 -0.20881605561E-02  0.31471620164E-02  0.38154119364E-02  0.51100000000E-03 0.  1.
</event>
<event>
 8    1  0.1093753E+005  0.1043930E+01  0.7957747E-01            NaN
         13   -1    0    0    0    0  0.00000000000E+00  0.00000000000E+00  0.74505805969E-08  0.10566000000E+00  0.10566000000E+00 0. -1.
     999900   -1    0    0    0    0 -0.00000000000E+00 -0.00000000000E+00 -0.74505805969E-08  0.93827000000E+00  0.93827000000E+00 0. -1.
     999902    2    1    2    0    0  0.79257685821E-02  0.12151157844E-01  0.18440705198E-01  0.10204666658E+01  0.10201968868E+01 0.  0.
     999903    2    3    3    0    0 -0.95016152839E-01  0.40507802519E-01  0.79649233925E-01  0.13190174273E+00  0.19624421143E-01 0.  0.
         14    1    1    2    0    0 -0.79257685821E-02 -0.12151157844E-01 -0.18440705198E-01  0.23463334221E-01  0.00000000000E+00 0.  1.
     999901    1    3    3    0    0  0.10294192142E+00 -0.28356644675E-01 -0.61208528727E-01  0.88856492305E+00  0.88000000000E+00 0.  1.
        -11    1    4    4    0    0 -0.24574509710E-01  0.66458202172E-02  0.10494334384E-01  0.27540254701E-01  0.51100000000E-03 0.  1.
         11    1    4    4    0    0 -0.70441643129E-01  0.33861982302E-01  0.69154899541E-01  0.10436148803E+00  0.51100000000E-03 0. -1.
</event>
<event>
 8    1  0.1093753E+005  0.1043930E+01  0.7957747E-01            NaN
         13   -1    0    0    0    0  0.00000000000E+00  0.00000000000E+00  0.74505805969E-08  0.10566000000E+00  0.10566000000E+00 0.  1.
     999900   -1    0    0    0    0 -0.00000000000E+00 -0.00000000000E+00 -0.74505805969E-08  0.93827000000E+00  0.93827000000E+00 0. -1.
     999902    2    1    2    0    0  0.14617738513E-01 -0.18598331811E-01  0.92430278720E-03  0.10202565854E+01  0.10199818966E+01 0.  0.
     999903    2    3    3    0    0  0.14294529530E-01  0.33087001293E-01 -0.12321237820E+00  0.13004234502E+00  0.20751822266E-01 0.  0.
         14    1    1    2    0    0 -0.14617738513E-01  0.18598331811E-01 -0.92430278720E-03  0.23673414647E-01  0.00000000000E+00 0.  1.
     999901    1    3    3    0    0  0.32320898334E-03 -0.51685333104E-01  0.12413668099E+00  0.89021424033E+00  0.88000000000E+00 0.  1.
        -11    1    4    4    0    0  0.48734835706E-02  0.25158110868E-01 -0.10478093305E+00  0.10787022961E+00  0.51100000000E-03 0.  1.
         11    1    4    4    0    0  0.94210459593E-02  0.79288904249E-02 -0.18431445149E-01  0.22172115407E-01  0.51100000000E-03 0. -1.
</event>
<event>
 8    1  0.1093753E+005  0.1043930E+01  0.7957747E-01            NaN
         13   -1    0    0    0    0  0.00000000000E+00  0.00000000000E+00  0.74505805969E-08  0.10566000000E+00  0.10566000000E+00 0. -1.
     999900   -1    0    0    0    0 -0.00000000000E+00 -0.00000000000E+00 -0.74505805969E-08  0.93827000000E+00  0.93827000000E+00 0.  1.
     999902    2    1    2    0    0  0.14021474157E-01 -0.17910487150E-01  0.67884824184E-02  0.10201924605E+01  0.10199162641E+01 0.  0.
     999903    2    3    3    0    0  0.73081892364E-02  0.38762542641E-01 -0.12122304892E+00  0.12910107762E+00  0.20398929183E-01 0.  0.
         14    1    1    2    0    0 -0.14021474157E-01  0.17910487150E-01 -0.67884824184E-02  0.23737539490E-01  0.00000000000E+00 0.  1.
     999901    1    3    3    0    0  0.67132849211E-02 -0.56673029792E-01  0.12801153134E+00  0.89109138289E+00  0.88000000000E+00 0. -1.
        -11    1    4    4    0    0  0.25802464074E-03  0.23679173966E-01 -0.42689106182E-01  0.48819983245E-01  0.51100000000E-03 0.  1.
         11    1    4    4    0    0  0.70501645956E-02  0.15083368675E-01 -0.78533942738E-01  0.80281094377E-01  0.51100000000E-03 0. -1.
</event>
<event>
 8    1  0.1093753E+005  0.1043930E+01  0.7957747E-01            NaN
         13   -1    0    0    0    0  0.00000000000E+00  0.00000000000E+00  0.74505805969E-08  0.10566000000E+00  0.10566000000E+00 0.  1.
     999900   -1    0    0    0    0 -0.00000000000E+00 -0.00000000000E+00 -0.74505805969E-08  0.93827000000E+00  0.93827000000E+00 0.  1.
     999902    2    1    2    0    0 -0.17687378966E-01 -0.96652608467E-02 -0.11402876203E-01  0.10207721454E+01  0.10205094251E+01 0.  0.
     999903    2    3    3    0    0  0.84885331759E-01  0.94513464740E-01 -0.86460716525E-02  0.12870602243E+00  0.18766222076E-01 0.  0.
         14    1    1    2    0    0  0.17687378966E-01  0.96652608467E-02  0.11402876203E-01  0.23157854555E-01  0.00000000000E+00 0.  1.
     999901    1    3    3    0    0 -0.10257271072E+00 -0.10417872559E+00 -0.27568045502E-02  0.89206612301E+00  0.88000000000E+00 0.  1.
        -11    1    4    4    0    0  0.84893102908E-01  0.90950294018E-01 -0.10099358935E-01  0.12482408852E+00  0.51100000000E-03 0. -1.
         11    1    4    4    0    0 -0.77711489435E-05  0.35631707216E-02  0.14532872821E-02  0.38819339132E-02  0.51100000000E-03 0.  1.
</event>
<event>
 8    1  0.1093753E+005  0.1043930E+01  0.7957747E-01            NaN
         13   -1    0    0    0    0  0.00000000000E+00  0.00000000000E+00  0.74505805969E-08  0.10566000000E+00  0.10566000000E+00 0.  1.
     999900   -1    0    0    0    0 -0.00000000000E+00 -0.00000000000E+00 -0.74505805969E-08  0.93827000000E+00  0.93827000000E+00 0.  1.
     999902    2    1    2    0    0 -0.36892784910E-02 -0.70056406056E-02  0.20103491478E-01  0.10223235161E+01  0.10220951675E+01 0.  0.
     999903    2    3    3    0    0  0.66980703205E-02 -0.29386836532E-01 -0.12506628673E+00  0.13008863704E+00  0.19313909587E-01 0.  0.
         14    1    1    2    0    0  0.36892784910E-02  0.70056406056E-02 -0.20103491478E-01  0.21606483881E-01  0.00000000000E+00 0. -1.
     999901    1    3    3    0    0 -0.10387348812E-01  0.22381195927E-01  0.14516977820E+00  0.89223487908E+00  0.88000000000E+00 0. -1.
        -11    1    4    4    0    0  0.12829598472E-01 -0.23726183659E-01 -0.85763757142E-01  0.89906693566E-01  0.51100000000E-03 0. -1.
         11    1    4    4    0    0 -0.61315281515E-02 -0.56606528735E-02 -0.39302529584E-01  0.40181943471E-01  0.51100000000E-03 0.  1.
</event>
<event>
 8    1  0.1093753E+005  0.1043930E+01  0.7957747E-01            NaN
         13   -1    0    0    0    0  0.00000000000E+00  0.00000000000E+00  0.74505805969E-08  0.10566000000E+00  0.10566000000E+00 0. -1.
     999900   -1    0    0    0    0 -0.00000000000E+00 -0.00000000000E+00 -0.74505805969E-08  0.93827000000E+00  0.93827000000E+00 0. -1.
     999902    2    1    2    0    0 -0.13499474135E-01  0.43146906510E-03 -0.20063427492E-01  0.10197439898E+01  0.10194571308E+01 0.  0.
     999903    2    3    3    0    0  0.12006315942E+00 -0.40898848022E-01  0.19224747181E-02  0.12843565251E+00  0.20103305925E-01 0.  0.
         14    1    1    2    0    0  0.13499474135E-01 -0.43146906510E-03  0.20063427492E-01  0.24186010217E-01  0.00000000000E+00 0. -1.
     999901    1    3    3    0    0 -0.13356263355E+00  0.41330317087E-01 -0.21985902211E-01  0.89130833727E+00  0.88000000000E+00 0.  1.
        -11    1    4    4    0    0  0.78638212030E-01 -0.30754161671E-01 -0.74443655224E-02  0.84767131309E-01  0.51100000000E-03 0.  1.
         11    1    4    4    0    0  0.41424947385E-01 -0.10144686351E-01  0.93668402405E-02  0.43668521203E-01  0.51100000000E-03 0. -1.
</event>
<event>
 8    1  0.1093753E+005  0.1043930E+01  0.7957747E-01            NaN
         13   -1    0    0    0    0  0.00000000000E+00  0.00000000000E+00  0.74505805969E-08  0.10566000000E+00  0.10566000000E+00 0. -1.
     999900   -1    0    0    0    0 -0.00000000000E+00 -0.00000000000E+00 -0.74505805969E-08  0.93827000000E+00  0.93827000000E+00 0. -1.
     999902    2    1    2    0    0  0.13619012058E-01  0.12968390759E-01  0.14486175438E-01  0.10201917202E+01  0.10199155063E+01 0.  0.
     999903    2    3    3    0    0  0.40068153332E-01  0.15097764132E-02 -0.12072068220E+00  0.12939895460E+00  0.23724881579E-01 0.  0.
         14    1    1    2    0    0 -0.13619012058E-01 -0.12968390759E-01 -0.14486175438E-01  0.23738279784E-01  0.00000000000E+00 0.  1.
     999901    1    3    3    0    0 -0.26449141274E-01  0.11458614345E-01  0.13520685764E+00  0.89079276561E+00  0.88000000000E+00 0.  1.
        -11    1    4    4    0    0  0.48634456131E-02  0.15683224173E-02 -0.19068009782E-02  0.54781154978E-02  0.51100000000E-03 0. -1.
         11    1    4    4    0    0  0.35204707719E-01 -0.58546004084E-04 -0.11881388122E+00  0.12392083910E+00  0.51100000000E-03 0.  1.
</event>
<event>
 8    1  0.1093753E+005  0.1043930E+01  0.7957747E-01            NaN
         13   -1    0    0    0    0  0.00000000000E+00  0.00000000000E+00  0.74505805969E-08  0.10566000000E+00  0.10566000000E+00 0.  1.
     999900   -1    0    0    0    0 -0.00000000000E+00 -0.00000000000E+00 -0.74505805969E-08  0.93827000000E+00  0.93827000000E+00 0. -1.
     999902    2    1    2    0    0  0.15017202663E-01 -0.13039614280E-01  0.13976551445E-01  0.10196217317E+01  0.10193319302E+01 0.  0.
     999903    2    3    3    0    0  0.11958429262E+00 -0.30575668835E-01 -0.41078208026E-01  0.13154920312E+00  0.19557584252E-01 0.  0.
         14    1    1    2    0    0 -0.15017202663E-01  0.13039614280E-01 -0.13976551445E-01  0.24308268278E-01  0.00000000000E+00 0. -1.
     999901    1    3    3    0    0 -0.10456708996E+00  0.17536054555E-01  0.55054759471E-01  0.88807252860E+00  0.88000000000E+00 0. -1.
        -11    1    4    4    0    0  0.10556920038E+00 -0.23377615684E-01 -0.29777103488E-01  0.11215304721E+00  0.51100000000E-03 0. -1.
         11    1    4    4    0    0  0.14015092235E-01 -0.71980531508E-02 -0.11301104538E-01  0.19396155916E-01  0.51100000000E-03 0.  1.
</event>
<event>
 8    1  0.1093753E+005  0.1043930E+01  0.7957747E-01            NaN
         13   -1    0    0    0    0  0.00000000000E+00  0.00000000000E+00  0.74505805969E-08  0.10566000000E+00  0.10566000000E+00 0.  1.
     999900   -1    0    0    0    0 -0.00000000000E+00 -0.00000000000E+00 -0.74505805969E-08  0.93827000000E+00  0.93827000000E+00 0. -1.
     999902    2    1    2    0    0  0.19960533002E-01  0.11395621540E-01  0.44495945354E-02  0.10205188497E+01  0.10202502833E+01 0.  0.
     999903    2    3    3    0    0 -0.47764870229E-01  0.25197062267E-01 -0.11616426303E+00  0.12960644509E+00  0.19680442780E-01 0.  0.
         14    1    1    2    0    0 -0.19960533002E-01 -0.11395621540E-01 -0.44495945354E-02  0.23411150325E-01  0.00000000000E+00 0.  1.
     999901    1    3    3    0    0  0.67725403231E-01 -0.13801440728E-01  0.12061385757E+00  0.89091240459E+00  0.88000000000E+00 0.  1.
        -11    1    4    4    0    0 -0.10971518269E-01  0.15980603132E-01 -0.43868746770E-01  0.47963339685E-01  0.51100000000E-03 0.  1.
         11    1    4    4    0    0 -0.36793351959E-01  0.92164591354E-02 -0.72295516261E-01  0.81643105403E-01  0.51100000000E-03 0. -1.
</event>
<event>
 8    1  0.1093753E+005  0.1043930E+01  0.7957747E-01            NaN
         13   -1    0    0    0    0  0.00000000000E+00  0.00000000000E+00  0.74505805969E-08  0.10566000000E+00  0.10566000000E+00 0.  1.
     999900   -1    0    0    0    0 -0.00000000000E+00 -0.00000000000E+00 -0.74505805969E-08  0.93827000000E+00  0.93827000000E+00 0. -1.
     999902    2    1    2    0    0  0.70285152174E-02 -0.22336792562E-01 -0.33549473683E-03  0.10205110998E+01  0.10202423536E+01 0.  0.
     999903    2    3    3    0    0  0.87045796590E-01 -0.94855828561E-01  0.28877007509E-01  0.13342872137E+00  0.19868145552E-01 0.  0.
         14    1    1    2    0    0 -0.70285152174E-02  0.22336792562E-01  0.33549473683E-03  0.23418900163E-01  0.00000000000E+00 0. -1.
     999901    1    3    3    0    0 -0.80017281373E-01  0.72519035999E-01 -0.29212502246E-01  0.88708237847E+00  0.88000000000E+00 0.  1.
        -11    1    4    4    0    0  0.20188743740E-01 -0.13618767812E-01  0.12385541281E-03  0.24358420960E-01  0.51100000000E-03 0.  1.
         11    1    4    4    0    0  0.66857052850E-01 -0.81237060749E-01  0.28753152096E-01  0.10907030041E+00  0.51100000000E-03 0. -1.
</event>
<event>
 8    1  0.1093753E+005  0.1043930E+01  0.7957747E-01            NaN
         13   -1    0    0    0    0  0.00000000000E+00  0.00000000000E+00  0.74505805969E-08  0.10566000000E+00  0.10566000000E+00 0.  1.
     999900   -1    0    0    0    0 -0.00000000000E+00 -0.00000000000E+00 -0.74505805969E-08  0.93827000000E+00  0.93827000000E+00 0.  1.
     999902    2    1    2    0    0  0.15737065517E-01  0.19944119382E-02  0.17886943230E-01  0.10200223517E+01  0.10197421352E+01 0.  0.
     999903    2    3    3    0    0  0.92373683903E-01 -0.77559852644E-02 -0.89128683244E-01  0.13017933978E+00  0.20240690272E-01 0.  0.
         14    1    1    2    0    0 -0.15737065517E-01 -0.19944119382E-02 -0.17886943230E-01  0.23907648320E-01  0.00000000000E+00 0. -1.
     999901    1    3    3    0    0 -0.76636618386E-01  0.97503972026E-02  0.10701562647E+00  0.88984301190E+00  0.88000000000E+00 0. -1.
        -11    1    4    4    0    0  0.42880053964E-01 -0.42628926269E-02 -0.27764974949E-01  0.51264278367E-01  0.51100000000E-03 0. -1.
         11    1    4    4    0    0  0.49493629939E-01 -0.34930926376E-02 -0.61363708295E-01  0.78915061410E-01  0.51100000000E-03 0.  1.
</event>
<event>
 8    1  0.1093753E+005  0.1043930E+01  0.7957747E-01            NaN
         13   -1    0    0    0    0  0.00000000000E+00  0.00000000000E+00  0.74505805969E-08  0.10566000000E+00  0.10566000000E+00 0. -1.
     999900   -1    0    0    0    0 -0.00000000000E+00 -0.00000000000E+00 -0.74505805969E-08  0.93827000000E+00  0.93827000000E+00 0. -1.
     999902    2    1    2    0    0  0.74551336971E-02 -0.18226833883E-01  0.12121990843E-01  0.10208055724E+01  0.10205436186E+01 0.  0.
     999903    2    3    3    0    0 -0.75112553347E-01 -0.10132561015E+00  0.36631874979E-01  0.13270447227E+00  0.18968599111E-01 0.  0.
         14    1    1    2    0    0 -0.74551336971E-02  0.18226833883E-01 -0.12121990843E-01  0.23124427644E-01  0.00000000000E+00 0.  1.
     999901    1    3    3    0    0  0.82567687044E-01  0.83098776267E-01 -0.24509884136E-01  0.88810110009E+00  0.88000000000E+00 0. -1.
        -11    1    4    4    0    0 -0.37865792288E-01 -0.66466050892E-01  0.20476464404E-01  0.79190282625E-01  0.51100000000E-03 0.  1.
         11    1    4    4    0    0 -0.37246761059E-01 -0.34859559259E-01  0.16155410575E-01  0.53514189641E-01  0.51100000000E-03 0. -1.
</event>
<event>
 8    1  0.1093753E+005  0.1043930E+01  0.7957747E-01            NaN
         13   -1    0    0    0    0  0.00000000000E+00  0.00000000000E+00  0.74505805969E-08  0.10566000000E+00  0.10566000000E+00 0. -1.
     999900   -1    0    0    0    0 -0.00000000000E+00 -0.00000000000E+00 -0.74505805969E-08  0.93827000000E+00  0.93827000000E+00 0.  1.
     999902    2    1    2    0    0  0.14831165325E-01 -0.33811252913E-02 -0.19489011888E-01  0.10192071956E+01  0.10189073022E+01 0.  0.
     999903    2    3    3    0    0 -0.87555704973E-01 -0.10594087312E-01 -0.94806757300E-01  0.13004587120E+00  0.12056999096E-01 0.  0.
         14    1    1    2    0    0 -0.14831165325E-01  0.33811252913E-02  0.19489011888E-01  0.24722804402E-01  0.00000000000E+00 0. -1.
     999901    1    3    3    0    0  0.10238687030E+00  0.72129620206E-02  0.75317745412E-01  0.88916132440E+00  0.88000000000E+00 0. -1.
        -11    1    4    4    0    0 -0.50432493628E-01 -0.85748316909E-02 -0.46901612436E-01  0.69404513702E-01  0.51100000000E-03 0.  1.
         11    1    4    4    0    0 -0.37123211345E-01 -0.20192556211E-02 -0.47905144864E-01  0.60641357499E-01  0.51100000000E-03 0. -1.
</event>
<event>
 8    1  0.1093753E+005  0.1043930E+01  0.7957747E-01            NaN
         13   -1    0    0    0    0  0.00000000000E+00  0.00000000000E+00  0.74505805969E-08  0.10566000000E+00  0.10566000000E+00 0.  1.
     999900   -1    0    0    0    0 -0.00000000000E+00 -0.00000000000E+00 -0.74505805969E-08  0.93827000000E+00  0.93827000000E+00 0.  1.
     999902    2    1    2    0    0  0.10370268657E-01 -0.17604617580E-01 -0.13947768891E-01  0.10191912593E+01  0.10188909745E+01 0.  0.
     999903    2    3    3    0    0 -0.79633253645E-01 -0.23950248477E-01 -0.98482791563E-01  0.13054787130E+00  0.20707896530E-01 0.  0.
         14    1    1    2    0    0 -0.10370268657E-01  0.17604617580E-01  0.13947768891E-01  0.24738740655E-01  0.00000000000E+00 0. -1.
     999901    1    3    3    0    0  0.90003522302E-01  0.63456308972E-02  0.84535022672E-01  0.88864338805E+00  0.88000000000E+00 0. -1.
        -11    1    4    4    0    0 -0.54128977511E-01 -0.25569553650E-01 -0.64154775976E-01  0.87748758862E-01  0.51100000000E-03 0. -1.
         11    1    4    4    0    0 -0.25504276134E-01  0.16193051729E-02 -0.34328015587E-01  0.42799112438E-01  0.51100000000E-03 0.  1.
</event>
<event>
 8    1  0.1093753E+005  0.1043930E+01  0.7957747E-01            NaN
         13   -1    0    0    0    0  0.00000000000E+00  0.00000000000E+00  0.74505805969E-08  0.10566000000E+00  0.10566000000E+00 0.  1.
     999900   -1    0    0    0    0 -0.00000000000E+00 -0.00000000000E+00 -0.74505805969E-08  0.93827000000E+00  0.93827000000E+00 0.  1.
     999902    2    1    2    0    0  0.90120490773E-02  0.21182081268E-01 -0.74876881962E-02  0.10197233259E+01  0.10194359707E+01 0.  0.
     999903    2    3    3    0    0  0.10624073637E+00  0.16183300098E-01  0.72360421192E-01  0.13076093863E+00  0.17703085908E-01 0.  0.
         14    1    1    2    0    0 -0.90120490773E-02 -0.21182081268E-01  0.74876881962E-02  0.24206674079E-01  0.00000000000E+00 0.  1.
     999901    1    3    3    0    0 -0.97228687289E-01  0.49987811707E-02 -0.79848109388E-01  0.88896238729E+00  0.88000000000E+00 0.  1.
        -11    1    4    4    0    0  0.58242338095E-01  0.12275496218E-01  0.30165670043E-01  0.66731450788E-01  0.51100000000E-03 0.  1.
         11    1    4    4    0    0  0.47998398272E-01  0.39078038792E-02  0.42194751149E-01  0.64029487842E-01  0.51100000000E-03 0. -1.
</event>
<event>
 8    1  0.1093753E+005  0.1043930E+01  0.7957747E-01            NaN
         13   -1    0    0    0    0  0.00000000000E+00  0.00000000000E+00  0.74505805969E-08  0.10566000000E+00  0.10566000000E+00 0. -1.
     999900   -1    0    0    0    0 -0.00000000000E+00 -0.00000000000E+00 -0.74505805969E-08  0.93827000000E+00  0.93827000000E+00 0.  1.
     999902    2    1    2    0    0  0.68404045390E-02 -0.27577928355E-02  0.20137340792E-01  0.10224845098E+01  0.10222595873E+01 0.  0.
     999903    2    3    3    0    0  0.84059401738E-01  0.85470132114E-01 -0.50810795265E-01  0.13187765025E+00  0.20948776019E-01 0.  0.
         14    1    1    2    0    0 -0.68404045390E-02  0.27577928355E-02 -0.20137340792E-01  0.21445490196E-01  0.00000000000E+00 0.  1.
     999901    1    3    3    0    0 -0.77218997199E-01 -0.88227924949E-01  0.70948136057E-01  0.89060685955E+00  0.88000000000E+00 0. -1.
        -11    1    4    4    0    0  0.27852352826E-01  0.29656475926E-01 -0.28186023668E-01  0.49497203694E-01  0.51100000000E-03 0.  1.
         11    1    4    4    0    0  0.56207048912E-01  0.55813656188E-01 -0.22624771597E-01  0.82380446560E-01  0.51100000000E-03 0. -1.
</event>
<event>
 8    1  0.1093753E+005  0.1043930E+01  0.7957747E-01            NaN
         13   -1    0    0    0    0  0.00000000000E+00  0.00000000000E+00  0.74505805969E-08  0.10566000000E+00  0.10566000000E+00 0. -1.
     999900   -1    0    0    0    0 -0.00000000000E+00 -0.00000000000E+00 -0.74505805969E-08  0.93827000000E+00  0.93827000000E+00 0.  1.
     999902    2    1    2    0    0  0.20731859299E-01 -0.90230082905E-02 -0.61190432289E-02  0.10205063504E+01  0.10202374939E+01 0.  0.
     999903    2    3    3    0    0 -0.12467526981E+00  0.34793191578E-02 -0.22518343401E-01  0.12833569500E+00  0.20172909004E-01 0.  0.
         14    1    1    2    0    0 -0.20731859299E-01  0.90230082905E-02  0.61190432289E-02  0.23423649558E-01  0.00000000000E+00 0.  1.
     999901    1    3    3    0    0  0.14540712911E+00 -0.12502327448E-01  0.16399300172E-01  0.89217065544E+00  0.88000000000E+00 0. -1.
        -11    1    4    4    0    0 -0.91213427708E-01  0.11164111710E-01 -0.18792843173E-01  0.93797435253E-01  0.51100000000E-03 0.  1.
         11    1    4    4    0    0 -0.33461842101E-01 -0.76847925518E-02 -0.37255002281E-02  0.34538259747E-01  0.51100000000E-03 0. -1.
</event>
<event>
 8    1  0.1093753E+005  0.1043930E+01  0.7957747E-01            NaN
         13   -1    0    0    0    0  0.00000000000E+00  0.00000000000E+00  0.74505805969E-08  0.10566000000E+00  0.10566000000E+00 0.  1.
     999900   -1    0    0    0    0 -0.00000000000E+00 -0.00000000000E+00 -0.74505805969E-08  0.93827000000E+00  0.93827000000E+00 0.  1.
     999902    2    1    2    0    0 -0.12746544936E-01 -0.95229252276E-02  0.16369659307E-01  0.10211018100E+01  0.10208465997E+01 0.  0.
     999903    2    3    3    0    0 -0.12641717303E+00 -0.22563060806E-01 -0.26347483004E-01  0.13266733798E+00  0.20397042880E-01 0.  0.
         14    1    1    2    0    0  0.12746544936E-01  0.95229252276E-02 -0.16369659307E-01  0.22828189997E-01  0.00000000000E+00 0. -1.
     999901    1    3    3    0    0  0.11367062809E+00  0.13040135578E-01  0.42717142311E-01  0.88843447202E+00  0.88000000000E+00 0. -1.
        -11    1    4    4    0    0 -0.86844490681E-01 -0.14719113884E-01 -0.27584126732E-01  0.92302562499E-01  0.51100000000E-03 0. -1.
         11    1    4    4    0    0 -0.39572682344E-01 -0.78439469218E-02  0.12366437282E-02  0.40364775485E-01  0.51100000000E-03 0.  1.
</event>
<event>
 8    1  0.1093753E+005  0.1043930E+01  0.7957747E-01            NaN
         13   -1    0    0    0    0  0.00000000000E+00  0.00000000000E+00  0.74505805969E-08  0.10566000000E+00  0.10566000000E+00 0. -1.
     999900   -1    0    0    0    0 -0.00000000000E+00 -0.00000000000E+00 -0.74505805969E-08  0.93827000000E+00  0.93827000000E+00 0.  1.
     999902    2    1    2    0    0  0.45230548155E-02 -0.95142861443E-03 -0.26915402670E-01  0.10166206217E+01  0.10162537510E+01 0.  0.
     999903    2    3    3    0    0 -0.10236868313E+00 -0.65502572047E-01  0.27374599151E-01  0.12614878159E+00  0.19854777428E-01 0.  0.
         14    1    1    2    0    0 -0.45230548155E-02  0.95142861443E-03  0.26915402670E-01  0.27309378282E-01  0.00000000000E+00 0. -1.
     999901    1    3    3    0    0  0.10689173795E+00  0.64551143433E-01 -0.54290001821E-01  0.89047184013E+00  0.88000000000E+00 0.  1.
        -11    1    4    4    0    0 -0.74120716107E-02 -0.67045641507E-02  0.79570144515E-02  0.12785350445E-01  0.51100000000E-03 0. -1.
         11    1    4    4    0    0 -0.94956611524E-01 -0.58798007897E-01  0.19417584699E-01  0.11336343115E+00  0.51100000000E-03 0.  1.
</event>
<event>
 8    1  0.1093753E+005  0.1043930E+01  0.7957747E-01            NaN
         13   -1    0    0    0    0  0.00000000000E+00  0.00000000000E+00  0.74505805969E-08  0.10566000000E+00  0.10566000000E+00 0.  1.
     999900   -1    0    0    0    0 -0.00000000000E+00 -0.00000000000E+00 -0.74505805969E-08  0.93827000000E+00  0.93827000000E+00 0. -1.
     999902    2    1    2    0    0 -0.67681763088E-02 -0.15892683661E-01 -0.17036744420E-01  0.10196681727E+01  0.10193794907E+01 0.  0.
     999903    2    3    3    0    0  0.57526699723E-01 -0.86330014562E-01 -0.78993483879E-01  0.13234980466E+00  0.22678353149E-01 0.  0.
         14    1    1    2    0    0  0.67681763088E-02  0.15892683661E-01  0.17036744420E-01  0.24261827320E-01  0.00000000000E+00 0.  1.
     999901    1    3    3    0    0 -0.64294876032E-01  0.70437330901E-01  0.61956739460E-01  0.88731836802E+00  0.88000000000E+00 0. -1.
        -11    1    4    4    0    0  0.42397906856E-01 -0.57589955892E-01 -0.41273003066E-01  0.82570620855E-01  0.51100000000E-03 0.  1.
         11    1    4    4    0    0  0.15128792868E-01 -0.28740058671E-01 -0.37720480813E-01  0.49779183800E-01  0.51100000000E-03 0. -1.
</event>
<event>
 8    1  0.1093753E+005  0.1043930E+01  0.7957747E-01            NaN
         13   -1    0    0    0    0  0.00000000000E+00  0.00000000000E+00  0.74505805969E-08  0.10566000000E+00  0.10566000000E+00 0.  1.
     999900   -1    0    0    0    0 -0.00000000000E+00 -0.00000000000E+00 -0.74505805969E-08  0.93827000000E+00  0.93827000000E+00 0.  1.
     999902    2    1    2    0    0  0.11844978763E-01  0.11018120772E-01  0.16766164350E-01  0.10206317860E+01  0.10203658343E+01 0.  0.
     999903    2    3    3    0    0  0.10375162337E+00 -0.13575611907E-01 -0.75820891147E-01  0.13067445792E+00  0.19450188338E-01 0.  0.
         14    1    1    2    0    0 -0.11844978763E-01 -0.11018120772E-01 -0.16766164350E-01  0.23298213972E-01  0.00000000000E+00 0. -1.
     999901    1    3    3    0    0 -0.91906644612E-01  0.24593732679E-01  0.92587055497E-01  0.88995732811E+00  0.88000000000E+00 0. -1.
        -11    1    4    4    0    0  0.55449673791E-01 -0.14985136433E-01 -0.33887566907E-01  0.66692195566E-01  0.51100000000E-03 0.  1.
         11    1    4    4    0    0  0.48301949584E-01  0.14095245265E-02 -0.41933324240E-01  0.63982262353E-01  0.51100000000E-03 0. -1.
</event>
<event>
 8    1  0.1093753E+005  0.1043930E+01  0.7957747E-01            NaN
         13   -1    0    0    0    0  0.00000000000E+00  0.00000000000E+00  0.74505805969E-08  0.10566000000E+00  0.10566000000E+00 0. -1.
     999900   -1    0    0    0    0 -0.00000000000E+00 -0.00000000000E+00 -0.74505805969E-08  0.93827000000E+00  0.93827000000E+00 0. -1.
     999902    2    1    2    0    0 -0.21944125656E-01 -0.27791367840E-02 -0.49789859802E-02  0.10212571406E+01  0.10210054303E+01 0.  0.
     999903    2    3    3    0    0 -0.23829833803E-01  0.66213740521E-01 -0.11079795941E+00  0.13223451538E+00  0.16051754884E-01 0.  0.
         14    1    1    2    0    0  0.21944125656E-01  0.27791367840E-02  0.49789859802E-02  0.22672859402E-01  0.00000000000E+00 0. -1.
     999901    1    3    3    0    0  0.18857081468E-02 -0.68992877305E-01  0.10581897343E+00  0.88902262522E+00  0.88000000000E+00 0.  1.
        -11    1    4    4    0    0 -0.19207885950E-01  0.32695344308E-01 -0.51439295001E-01  0.63907672570E-01  0.51100000000E-03 0. -1.
         11    1    4    4    0    0 -0.46219478528E-02  0.33518396213E-01 -0.59358664410E-01  0.68326842809E-01  0.51100000000E-03 0.  1.
</event>
<event>
 8    1  0.1093753E+005  0.1043930E+01  0.7957747E-01            NaN
         13   -1    0    0    0    0  0.00000000000E+00  0.00000000000E+00  0.74505805969E-08  0.10566000000E+00  0.10566000000E+00 0.  1.
     999900   -1    0    0    0    0 -0.00000000000E+00 -0.00000000000E+00 -0.74505805969E-08  0.93827000000E+00  0.93827000000E+00 0. -1.
     999902    2    1    2    0    0  0.15286590664E-01  0.76427536758E-02 -0.16172292376E-01  0.10204005593E+01  0.10201292403E+01 0.  0.
     999903    2    3    3    0    0 -0.11804015114E+00  0.42876797290E-02  0.39336717950E-01  0.12862226466E+00  0.32317922425E-01 0.  0.
         14    1    1    2    0    0 -0.15286590664E-01 -0.76427536758E-02  0.16172292376E-01  0.23529440677E-01  0.00000000000E+00 0.  1.
     999901    1    3    3    0    0  0.13332674180E+00  0.33550739469E-02 -0.55509010325E-01  0.89177829466E+00  0.88000000000E+00 0. -1.
        -11    1    4    4    0    0 -0.22437977390E-01  0.67069575698E-02 -0.37629762662E-02  0.23724822878E-01  0.51100000000E-03 0. -1.
         11    1    4    4    0    0 -0.95602173747E-01 -0.24192778408E-02  0.43099694216E-01  0.10489744178E+00  0.51100000000E-03 0.  1.
</event>
<event>
 8    1  0.1093753E+005  0.1043930E+01  0.7957747E-01            NaN
         13   -1    0    0    0    0  0.00000000000E+00  0.00000000000E+00  0.74505805969E-08  0.10566000000E+00  0.10566000000E+00 0. -1.
     999900   -1    0    0    0    0 -0.00000000000E+00 -0.00000000000E+00 -0.74505805969E-08  0.93827000000E+00  0.93827000000E+00 0.  1.
     999902    2    1    2    0    0  0.17810864360E-02 -0.66164398519E-02  0.22392150924E-01  0.10205129556E+01  0.10202442524E+01 0.  0.
     999903    2    3    3    0    0  0.11674033147E+00  0.39231167562E-01  0.41791136934E-01  0.13164066344E+00  0.20380766542E-01 0.  0.
         14    1    1    2    0    0 -0.17810864360E-02  0.66164398519E-02 -0.22392150924E-01  0.23417044396E-01  0.00000000000E+00 0.  1.
     999901    1    3    3    0    0 -0.11495924503E+00 -0.45847607414E-01 -0.19398986010E-01  0.88887229217E+00  0.88000000000E+00 0.  1.
        -11    1    4    4    0    0  0.49201306382E-01  0.27172644611E-01  0.19787036084E-01  0.59589504805E-01  0.51100000000E-03 0. -1.
         11    1    4    4    0    0  0.67539025085E-01  0.12058522951E-01  0.22004100850E-01  0.72051158633E-01  0.51100000000E-03 0.  1.
</event>
<event>
 8    1  0.1093753E+005  0.1043930E+01  0.7957747E-01            NaN
         13   -1    0    0    0    0  0.00000000000E+00  0.00000000000E+00  0.74505805969E-08  0.10566000000E+00  0.10566000000E+00 0.  1.
     999900   -1    0    0    0    0 -0.00000000000E+00 -0.00000000000E+00 -0.74505805969E-08  0.93827000000E+00  0.93827000000E+00 0.  1.
     999902    2    1    2    0    0  0.20087836777E-02 -0.20432902410E-01 -0.27368903289E-02  0.10232169780E+01  0.10230073092E+01 0.  0.
     999903    2    3    3    0    0 -0.12795222500E+00  0.24101173043E-01  0.12755188045E-01  0.13242342605E+00  0.20509278878E-01 0.  0.
         14    1    1    2    0    0 -0.20087836777E-02  0.20432902410E-01  0.27368903289E-02  0.20713022026E-01  0.00000000000E+00 0.  1.
     999901    1    3    3    0    0  0.12996100868E+00 -0.44534075454E-01 -0.15492078374E-01  0.89079355192E+00  0.88000000000E+00 0.  1.
        -11    1    4    4    0    0 -0.71821317944E-01  0.11921700182E-01 -0.29832041484E-02  0.72866928537E-01  0.51100000000E-03 0. -1.
         11    1    4    4    0    0 -0.56130907058E-01  0.12179472862E-01  0.15738392193E-01  0.59556497515E-01  0.51100000000E-03 0.  1.
</event>
<event>
 8    1  0.1093753E+005  0.1043930E+01  0.7957747E-01            NaN
         13   -1    0    0    0    0  0.00000000000E+00  0.00000000000E+00  0.74505805969E-08  0.10566000000E+00  0.10566000000E+00 0. -1.
     999900   -1    0    0    0    0 -0.00000000000E+00 -0.00000000000E+00 -0.74505805969E-08  0.93827000000E+00  0.93827000000E+00 0.  1.
     999902    2    1    2    0    0  0.22349585378E-01 -0.51589113813E-02  0.77705977346E-02  0.10197122271E+01  0.10194246052E+01 0.  0.
     999903    2    3    3    0    0  0.52924175435E-01 -0.15322120006E-01  0.11769729530E+00  0.13228787814E+00  0.24732441739E-01 0.  0.
         14    1    1    2    0    0 -0.22349585378E-01  0.51589113813E-02 -0.77705977346E-02  0.24217772861E-01  0.00000000000E+00 0.  1.
     999901    1    3    3    0    0 -0.30574590057E-01  0.10163208625E-01 -0.10992669756E+00  0.88742434900E+00  0.88000000000E+00 0.  1.
        -11    1    4    4    0    0  0.12681792856E-01  0.43390655761E-02  0.44460289356E-01  0.46439571604E-01  0.51100000000E-03 0.  1.
         11    1    4    4    0    0  0.40242382579E-01 -0.19661185582E-01  0.73237005941E-01  0.85848306532E-01  0.51100000000E-03 0. -1.
</event>
<event>
 8    1  0.1093753E+005  0.1043930E+01  0.7957747E-01            NaN
         13   -1    0    0    0    0  0.00000000000E+00  0.00000000000E+00  0.74505805969E-08  0.10566000000E+00  0.10566000000E+00 0.  1.
     999900   -1    0    0    0    0 -0.00000000000E+00 -0.00000000000E+00 -0.74505805969E-08  0.93827000000E+00  0.93827000000E+00 0.  1.
     999902    2    1    2    0    0  0.19877929270E-02 -0.14041643902E-01 -0.20620904670E-01  0.10189031985E+01  0.10185957918E+01 0.  0.
     999903    2    3    3    0    0  0.94128815737E-01 -0.13210796917E-01 -0.88830983738E-01  0.13146684963E+00  0.18916389021E-01 0.  0.
         14    1    1    2    0    0 -0.19877929270E-02  0.14041643902E-01  0.20620904670E-01  0.25026801506E-01  0.00000000000E+00 0.  1.
     999901    1    3    3    0    0 -0.92141022810E-01 -0.83084698440E-03  0.68210079068E-01  0.88743634886E+00  0.88000000000E+00 0. -1.
        -11    1    4    4    0    0  0.25403597203E-01 -0.10656938812E-01 -0.32180306708E-01  0.42364446846E-01  0.51100000000E-03 0.  1.
         11    1    4    4    0    0  0.68725218534E-01 -0.25538581054E-02 -0.56650677030E-01  0.89102402789E-01  0.51100000000E-03 0. -1.
</event>
<event>
 8    1  0.1093753E+005  0.1043930E+01  0.7957747E-01            NaN
         13   -1    0    0    0    0  0.00000000000E+00  0.00000000000E+00  0.74505805969E-08  0.10566000000E+00  0.10566000000E+00 0.  1.
     999900   -1    0    0    0    0 -0.00000000000E+00 -0.00000000000E+00 -0.74505805969E-08  0.93827000000E+00  0.93827000000E+00 0.  1.
     999902    2    1    2    0    0 -0.36084193038E-02  0.69692834205E-02 -0.22751085652E-01  0.10198633530E+01  0.10195793521E+01 0.  0.
     999903    2    3    3    0    0 -0.69154498336E-01  0.61571849632E-01  0.87211743541E-01  0.12892589583E+00  0.21037136158E-01 0.  0.
         14    1    1    2    0    0  0.36084193038E-02 -0.69692834205E-02  0.22751085652E-01  0.24066647037E-01  0.00000000000E+00 0.  1.
     999901    1    3    3    0    0  0.65546079032E-01 -0.54602566212E-01 -0.10996282919E+00  0.89093745713E+00  0.88000000000E+00 0. -1.
        -11    1    4    4    0    0 -0.26246603580E-01  0.22168860116E-01  0.46651946693E-01  0.57939691142E-01  0.51100000000E-03 0. -1.
         11    1    4    4    0    0 -0.42907894756E-01  0.39402989516E-01  0.40559796848E-01  0.70986204692E-01  0.51100000000E-03 0.  1.
</event>
<event>
 8    1  0.1093753E+005  0.1043930E+01  0.7957747E-01            NaN
         13   -1    0    0    0    0  0.00000000000E+00  0.00000000000E+00  0.74505805969E-08  0.10566000000E+00  0.10566000000E+00 0.  1.
     999900   -1    0    0    0    0 -0.00000000000E+00 -0.00000000000E+00 -0.74505805969E-08  0.93827000000E+00  0.93827000000E+00 0. -1.
     999902    2    1    2    0    0  0.14845663540E-01 -0.10627895353E-01 -0.14137132493E-01  0.10208387809E+01  0.10205775875E+01 0.  0.
     999903    2    3    3    0    0 -0.74406582035E-01 -0.45604457410E-01  0.93221741279E-01  0.12914642865E+00  0.19297694188E-01 0.  0.
         14    1    1    2    0    0 -0.14845663540E-01  0.10627895353E-01  0.14137132493E-01  0.23091219125E-01  0.00000000000E+00 0.  1.
     999901    1    3    3    0    0  0.89252245574E-01  0.34976562056E-01 -0.10735887377E+00  0.89169235222E+00  0.88000000000E+00 0. -1.
        -11    1    4    4    0    0 -0.67450843146E-02 -0.70340468751E-02  0.19968852301E-01  0.22225889432E-01  0.51100000000E-03 0.  1.
         11    1    4    4    0    0 -0.67661497720E-01 -0.38570410535E-01  0.73252888978E-01  0.10692053922E+00  0.51100000000E-03 0. -1.
</event>
<event>
 8    1  0.1093753E+005  0.1043930E+01  0.7957747E-01            NaN
         13   -1    0    0    0    0  0.00000000000E+00  0.00000000000E+00  0.74505805969E-08  0.10566000000E+00  0.10566000000E+00 0. -1.
     999900   -1    0    0    0    0 -0.00000000000E+00 -0.00000000000E+00 -0.74505805969E-08  0.93827000000E+00  0.93827000000E+00 0. -1.
     999902    2    1    2    0    0 -0.93350639799E-02  0.18102038062E-01  0.12538719082E-01  0.10200125027E+01  0.10197320525E+01 0.  0.
     999903    2    3    3    0    0 -0.43778864152E-01 -0.11336609134E+00  0.38844578396E-01  0.12919139682E+00  0.20323782357E-01 0.  0.
         14    1    1    2    0    0  0.93350639799E-02 -0.18102038062E-01 -0.12538719082E-01  0.23917497313E-01  0.00000000000E+00 0. -1.
     999901    1    3    3    0    0  0.34443800173E-01  0.13146812940E+00 -0.26305859314E-01  0.89082110586E+00  0.88000000000E+00 0.  1.
        -11    1    4    4    0    0 -0.38810923049E-01 -0.88085056709E-01  0.37760091514E-01  0.10339898740E+00  0.51100000000E-03 0.  1.
         11    1    4    4    0    0 -0.49679411036E-02 -0.25281034633E-01  0.10844868813E-02  0.25792409421E-01  0.51100000000E-03 0. -1.
</event>
<event>
 8    1  0.1093753E+005  0.1043930E+01  0.7957747E-01            NaN
         13   -1    0    0    0    0  0.00000000000E+00  0.00000000000E+00  0.74505805969E-08  0.10566000000E+00  0.10566000000E+00 0.  1.
     999900   -1    0    0    0    0 -0.00000000000E+00 -0.00000000000E+00 -0.74505805969E-08  0.93827000000E+00  0.93827000000E+00 0.  1.
     999902    2    1    2    0    0  0.22234067242E-01 -0.34505184720E-02 -0.64607465529E-02  0.10205205773E+01  0.10202520511E+01 0.  0.
     999903    2    3    3    0    0  0.69555265249E-01 -0.85705772427E-01  0.69894749696E-01  0.13213136961E+00  0.19748631558E-01 0.  0.
         14    1    1    2    0    0 -0.22234067242E-01  0.34505184720E-02  0.64607465529E-02  0.23409422672E-01  0.00000000000E+00 0.  1.
     999901    1    3    3    0    0 -0.47321198007E-01  0.82255253955E-01 -0.76355496249E-01  0.88838920772E+00  0.88000000000E+00 0.  1.
        -11    1    4    4    0    0  0.17231213370E-01 -0.35560975212E-01  0.27816065127E-01  0.48326931129E-01  0.51100000000E-03 0. -1.
         11    1    4    4    0    0  0.52324051879E-01 -0.50144797215E-01  0.42078684569E-01  0.83804438479E-01  0.51100000000E-03 0.  1.
</event>
<event>
 8    1  0.1093753E+005  0.1043930E+01  0.7957747E-01            NaN
         13   -1    0    0    0    0  0.00000000000E+00  0.00000000000E+00  0.74505805969E-08  0.10566000000E+00  0.10566000000E+00 0.  1.
     999900   -1    0    0    0    0 -0.00000000000E+00 -0.00000000000E+00 -0.74505805969E-08  0.93827000000E+00  0.93827000000E+00 0. -1.
     999902    2    1    2    0    0  0.82358289444E-02  0.98357366392E-02  0.26142665290E-01  0.10148093966E+01  0.10143914934E+01 0.  0.
     999903    2    3    3    0    0  0.74866393327E-01 -0.77388613214E-01  0.64941501788E-01  0.12714219037E+00  0.18808604727E-01 0.  0.
         14    1    1    2    0    0 -0.82358289444E-02 -0.98357366392E-02 -0.26142665290E-01  0.29120603395E-01  0.00000000000E+00 0. -1.
     999901    1    3    3    0    0 -0.66630564382E-01  0.87224349853E-01 -0.38798836499E-01  0.88766720624E+00  0.88000000000E+00 0. -1.
        -11    1    4    4    0    0  0.73381511070E-01 -0.71711355709E-01  0.64589588843E-01  0.12124125046E+00  0.51100000000E-03 0.  1.
         11    1    4    4    0    0  0.14848822563E-02 -0.56772575050E-02  0.35191294592E-03  0.59009399094E-02  0.51100000000E-03 0. -1.
</event>
<event>
 8    1  0.1093753E+005  0.1043930E+01  0.7957747E-01            NaN
         13   -1    0    0    0    0  0.00000000000E+00  0.00000000000E+00  0.74505805969E-08  0.10566000000E+00  0.10566000000E+00 0.  1.
     999900   -1    0    0    0    0 -0.00000000000E+00 -0.00000000000E+00 -0.74505805969E-08  0.93827000000E+00  0.93827000000E+00 0. -1.
     999902    2    1    2    0    0 -0.39381241110E-02  0.21753472159E-01 -0.12672204417E-01  0.10184484942E+01  0.10181296716E+01 0.  0.
     999903    2    3    3    0    0 -0.31236411355E-01  0.12518587007E+00 -0.18497113348E-01  0.13195123703E+00  0.20537046830E-01 0.  0.
         14    1    1    2    0    0  0.39381241110E-02 -0.21753472159E-01  0.12672204417E-01  0.25481505789E-01  0.00000000000E+00 0.  1.
     999901    1    3    3    0    0  0.27298287244E-01 -0.10343239791E+00  0.58249089309E-02  0.88649725718E+00  0.88000000000E+00 0.  1.
        -11    1    4    4    0    0 -0.33877667143E-01  0.10718708281E+00 -0.16975153686E-01  0.11368897931E+00  0.51100000000E-03 0.  1.
         11    1    4    4    0    0  0.26412557886E-02  0.17998787255E-01 -0.15219596618E-02  0.18262257719E-01  0.51100000000E-03 0. -1.
</event>
<event>
 8    1  0.1093753E+005  0.1043930E+01  0.7957747E-01            NaN
         13   -1    0    0    0    0  0.00000000000E+00  0.00000000000E+00  0.74505805969E-08  0.10566000000E+00  0.10566000000E+00 0.  1.
     999900   -1    0    0    0    0 -0.00000000000E+00 -0.00000000000E+00 -0.74505805969E-08  0.93827000000E+00  0.93827000000E+00 0. -1.
     999902    2    1    2    0    0 -0.19032681275E-01  0.11802022113E-01  0.20043711889E-02  0.10214456013E+01  0.10211981043E+01 0.  0.
     999903    2    3    3    0    0 -0.10266083807E+00  0.55280996285E-01 -0.62852586853E-01  0.13403897812E+00  0.20512526835E-01 0.  0.
         14    1    1    2    0    0  0.19032681275E-01 -0.11802022113E-01 -0.20043711889E-02  0.22484398732E-01  0.00000000000E+00 0. -1.
     999901    1    3    3    0    0  0.83628156795E-01 -0.43478974173E-01  0.64856958042E-01  0.88740662315E+00  0.88000000000E+00 0. -1.
        -11    1    4    4    0    0 -0.36237751216E-01  0.26257925784E-01 -0.15089989903E-01  0.47229463219E-01  0.51100000000E-03 0.  1.
         11    1    4    4    0    0 -0.66423086854E-01  0.29023070502E-01 -0.47762596951E-01  0.86809514899E-01  0.51100000000E-03 0. -1.
</event>
<event>
 8    1  0.1093753E+005  0.1043930E+01  0.7957747E-01            NaN
         13   -1    0    0    0    0  0.00000000000E+00  0.00000000000E+00  0.74505805969E-08  0.10566000000E+00  0.10566000000E+00 0.  1.
     999900   -1    0    0    0    0 -0.00000000000E+00 -0.00000000000E+00 -0.74505805969E-08  0.93827000000E+00  0.93827000000E+00 0. -1.
     999902    2    1    2    0    0 -0.57405989381E-02 -0.16442446239E-01 -0.15579744225E-01  0.10205625666E+01  0.10202950139E+01 0.  0.
     999903    2    3    3    0    0  0.11981813948E+00  0.35844362328E-01 -0.28600999039E-01  0.13001865401E+00  0.21109912022E-01 0.  0.
         14    1    1    2    0    0  0.57405989381E-02  0.16442446239E-01  0.15579744225E-01  0.23367433420E-01  0.00000000000E+00 0.  1.
     999901    1    3    3    0    0 -0.12555873841E+00 -0.52286808568E-01  0.13021254814E-01  0.89054391257E+00  0.88000000000E+00 0. -1.
        -11    1    4    4    0    0  0.62155751575E-01  0.25911684615E-01 -0.23324318834E-01  0.71267368574E-01  0.51100000000E-03 0. -1.
         11    1    4    4    0    0  0.57662387902E-01  0.99326777130E-02 -0.52766802051E-02  0.58751285433E-01  0.51100000000E-03 0.  1.
</event>
<event>
 8    1  0.1093753E+005  0.1043930E+01  0.7957747E-01            NaN
         13   -1    0    0    0    0  0.00000000000E+00  0.00000000000E+00  0.74505805969E-08  0.10566000000E+00  0.10566000000E+00 0.  1.
     999900   -1    0    0    0    0 -0.00000000000E+00 -0.00000000000E+00 -0.74505805969E-08  0.93827000000E+00  0.93827000000E+00 0. -1.
     999902    2    1    2    0    0  0.90178082843E-02  0.18190588435E-01  0.10631958629E-01  0.10210115158E+01  0.10207542596E+01 0.  0.
     999903    2    3    3    0    0 -0.64876443169E-01 -0.71341014087E-01  0.85289194228E-01  0.13025342794E+00  0.19829666410E-01 0.  0.
         14    1    1    2    0    0 -0.90178082843E-02 -0.18190588435E-01 -0.10631958629E-01  0.22918484203E-01  0.00000000000E+00 0. -1.
     999901    1    3    3    0    0  0.73894251454E-01  0.89531602522E-01 -0.74657235600E-01  0.89075808785E+00  0.88000000000E+00 0. -1.
        -11    1    4    4    0    0 -0.18365747155E-01 -0.21457209668E-01  0.13770225290E-01  0.31425988303E-01  0.51100000000E-03 0.  1.
         11    1    4    4    0    0 -0.46510696014E-01 -0.49883804419E-01  0.71518968938E-01  0.98827439641E-01  0.51100000000E-03 0. -1.
</event>
<event>
 8    1  0.1093753E+005  0.1043930E+01  0.7957747E-01            NaN
         13   -1    0    0    0    0  0.00000000000E+00  0.00000000000E+00  0.74505805969E-08  0.10566000000E+00  0.10566000000E+00 0. -1.
     999900   -1    0    0    0    0 -0.00000000000E+00 -0.00000000000E+00 -0.74505805969E-08  0.93827000000E+00  0.93827000000E+00 0. -1.
     999902    2    1    2    0    0  0.94167013250E-03  0.81162715730E-02 -0.21169120213E-01  0.10212387625E+01  0.10209866394E+01 0.  0.
     999903    2    3    3    0    0 -0.58760959603E-01  0.48264324857E-01  0.10295796499E+00  0.12962012015E+00  0.20463078074E-01 0.  0.
         14    1    1    2    0    0 -0.94167013250E-03 -0.81162715730E-02  0.21169120213E-01  0.22691237460E-01  0.00000000000E+00 0. -1.
     999901    1    3    3    0    0  0.59702629735E-01 -0.40148053284E-01 -0.12412708521E+00  0.89161864239E+00  0.88000000000E+00 0. -1.
        -11    1    4    4    0    0 -0.44945077578E-01  0.39816942511E-01  0.92683258768E-01  0.11043503288E+00  0.51100000000E-03 0. -1.
         11    1    4    4    0    0 -0.13815882024E-01  0.84473823464E-02  0.10274706225E-01  0.19185087272E-01  0.51100000000E-03 0.  1.
</event>
<event>
 8    1  0.1093753E+005  0.1043930E+01  0.7957747E-01            NaN
         13   -1    0    0    0    0  0.00000000000E+00  0.00000000000E+00  0.74505805969E-08  0.10566000000E+00  0.10566000000E+00 0. -1.
     999900   -1    0    0    0    0 -0.00000000000E+00 -0.00000000000E+00 -0.74505805969E-08  0.93827000000E+00  0.93827000000E+00 0. -1.
     999902    2    1    2    0    0  0.13492124534E-01 -0.78700033276E-02  0.18065413150E-01  0.10200483433E+01  0.10197687429E+01 0.  0.
     999903    2    3    3    0    0  0.35719016752E-01  0.72500926142E-01 -0.97948761234E-01  0.12852559553E+00  0.19815055652E-01 0.  0.
         14    1    1    2    0    0 -0.13492124534E-01  0.78700033276E-02 -0.18065413150E-01  0.23881656749E-01  0.00000000000E+00 0.  1.
     999901    1    3    3    0    0 -0.22226892217E-01 -0.80370929469E-01  0.11601417438E+00  0.89152274772E+00  0.88000000000E+00 0.  1.
        -11    1    4    4    0    0  0.22089972571E-01  0.30802923017E-01 -0.33670780154E-01  0.50702756452E-01  0.51100000000E-03 0.  1.
         11    1    4    4    0    0  0.13629044180E-01  0.41698003125E-01 -0.64277981080E-01  0.77822839081E-01  0.51100000000E-03 0. -1.
</event>
<event>
 8    1  0.1093753E+005  0.1043930E+01  0.7957747E-01            NaN
         13   -1    0    0    0    0  0.00000000000E+00  0.00000000000E+00  0.74505805969E-08  0.10566000000E+00  0.10566000000E+00 0.  1.
     999900   -1    0    0    0    0 -0.00000000000E+00 -0.00000000000E+00 -0.74505805969E-08  0.93827000000E+00  0.93827000000E+00 0. -1.
     999902    2    1    2    0    0 -0.11407438933E-01  0.75403335171E-03 -0.20866389541E-01  0.10201370506E+01  0.10198595479E+01 0.  0.
     999903    2    3    3    0    0  0.17121875146E-01  0.69768519476E-01 -0.10953554389E+00  0.13253401995E+00  0.20160013678E-01 0.  0.
         14    1    1    2    0    0  0.11407438933E-01 -0.75403335171E-03  0.20866389541E-01  0.23792949413E-01  0.00000000000E+00 0.  1.
     999901    1    3    3    0    0 -0.28529314079E-01 -0.69014486124E-01  0.88669154349E-01  0.88760303063E+00  0.88000000000E+00 0.  1.
        -11    1    4    4    0    0 -0.33379008167E-02  0.26204556548E-01 -0.36287496098E-01  0.44887234932E-01  0.51100000000E-03 0. -1.
         11    1    4    4    0    0  0.20459775963E-01  0.43563962928E-01 -0.73248047792E-01  0.87646785022E-01  0.51100000000E-03 0.  1.
</event>
<event>
 8    1  0.1093753E+005  0.1043930E+01  0.7957747E-01            NaN
         13   -1    0    0    0    0  0.00000000000E+00  0.00000000000E+00  0.74505805969E-08  0.10566000000E+00  0.10566000000E+00 0.  1.
     999900   -1    0    0    0    0 -0.00000000000E+00 -0.00000000000E+00 -0.74505805969E-08  0.93827000000E+00  0.93827000000E+00 0.  1.
     999902    2    1    2    0    0 -0.99203507032E-03 -0.26894867232E-01 -0.58850121502E-03  0.10170104095E+01  0.10166540753E+01 0.  0.
     999903    2    3    3    0    0 -0.89165840699E-01  0.69094721770E-01  0.52026201902E-01  0.12585558114E+00  0.20205788658E-01 0.  0.
         14    1    1    2    0    0  0.99203507032E-03  0.26894867232E-01  0.58850121502E-03  0.26919590462E-01  0.00000000000E+00 0.  1.
     999901    1    3    3    0    0  0.88173805628E-01 -0.95989589002E-01 -0.52614703117E-01  0.89115482840E+00  0.88000000000E+00 0.  1.
        -11    1    4    4    0    0 -0.81386476484E-01  0.68905658192E-01  0.50104387535E-01  0.11782384757E+00  0.51100000000E-03 0. -1.
         11    1    4    4    0    0 -0.77793642150E-02  0.18906357831E-03  0.19218143671E-02  0.80317335668E-02  0.51100000000E-03 0.  1.
</event>
<event>
 8    1  0.1093753E+005  0.1043930E+01  0.7957747E-01            NaN
         13   -1    0    0    0    0  0.00000000000E+00  0.00000000000E+00  0.74505805969E-08  0.10566000000E+00  0.10566000000E+00 0. -1.
     999900   -1    0    0    0    0 -0.00000000000E+00 -0.00000000000E+00 -0.74505805969E-08  0.93827000000E+00  0.93827000000E+00 0.  1.
     999902    2    1    2    0    0 -0.26441845503E-01 -0.23948184004E-02  0.38793596505E-02  0.10170980083E+01  0.10167440202E+01 0.  0.
     999903    2    3    3    0    0  0.53353788060E-01  0.71722104477E-01 -0.86287201632E-01  0.12581204397E+00  0.19811670072E-01 0.  0.
         14    1    1    2    0    0  0.26441845503E-01  0.23948184004E-02 -0.38793596505E-02  0.26831991727E-01  0.00000000000E+00 0.  1.
     999901    1    3    3    0    0 -0.79795633563E-01 -0.74116922877E-01  0.90166561282E-01  0.89128596430E+00  0.88000000000E+00 0.  1.
        -11    1    4    4    0    0  0.38269366702E-01  0.37275208989E-01 -0.57187229440E-01  0.78259989554E-01  0.51100000000E-03 0. -1.
         11    1    4    4    0    0  0.15084421359E-01  0.34446895488E-01 -0.29099972192E-01  0.47552054414E-01  0.51100000000E-03 0.  1.
</event>
<event>
 8    1  0.1093753E+005  0.1043930E+01  0.7957747E-01            NaN
         13   -1    0    0    0    0  0.00000000000E+00  0.00000000000E+00  0.74505805969E-08  0.10566000000E+00  0.10566000000E+00 0. -1.
     999900   -1    0    0    0    0 -0.00000000000E+00 -0.00000000000E+00 -0.74505805969E-08  0.93827000000E+00  0.93827000000E+00 0. -1.
     999902    2    1    2    0    0  0.11840880755E-01  0.20117623875E-01  0.40089028892E-02  0.10202446343E+01  0.10199696648E+01 0.  0.
     999903    2    3    3    0    0  0.25773661621E-01 -0.69379335570E-02 -0.12579929139E+00  0.13020177414E+00  0.20362311219E-01 0.  0.
         14    1    1    2    0    0 -0.11840880755E-01 -0.20117623875E-01 -0.40089028892E-02  0.23685365731E-01  0.00000000000E+00 0.  1.
     999901    1    3    3    0    0 -0.13932780865E-01  0.27055557432E-01  0.12980819428E+00  0.89004286013E+00  0.88000000000E+00 0.  1.
        -11    1    4    4    0    0  0.12227016197E-01 -0.13581921239E-01 -0.61900861135E-01  0.64544141793E-01  0.51100000000E-03 0.  1.
         11    1    4    4    0    0  0.13546645424E-01  0.66439876818E-02 -0.63898430258E-01  0.65657632343E-01  0.51100000000E-03 0. -1.
</event>
<event>
 8    1  0.1093753E+005  0.1043930E+01  0.7957747E-01            NaN
         13   -1    0    0    0    0  0.00000000000E+00  0.00000000000E+00  0.74505805969E-08  0.10566000000E+00  0.10566000000E+00 0.  1.
     999900   -1    0    0    0    0 -0.00000000000E+00 -0.00000000000E+00 -0.74505805969E-08  0.93827000000E+00  0.93827000000E+00 0. -1.
     999902    2    1    2    0    0 -0.55639675908E-02  0.62940527039E-02  0.27814803424E-01  0.10148742583E+01  0.10144582417E+01 0.  0.
     999903    2    3    3    0    0  0.15920945914E-01 -0.11708582946E+00  0.39015246973E-01  0.12593688890E+00  0.19373758260E-01 0.  0.
         14    1    1    2    0    0  0.55639675908E-02 -0.62940527039E-02 -0.27814803424E-01  0.29055741675E-01  0.00000000000E+00 0. -1.
     999901    1    3    3    0    0 -0.21484913504E-01  0.12337988216E+00 -0.11200443549E-01  0.88893736943E+00  0.88000000000E+00 0.  1.
        -11    1    4    4    0    0  0.15594279271E-01 -0.55809660136E-01  0.13151776762E-01  0.59423312458E-01  0.51100000000E-03 0.  1.
         11    1    4    4    0    0  0.32666664278E-03 -0.61276169325E-01  0.25863470211E-01  0.66513576438E-01  0.51100000000E-03 0. -1.
</event>
<event>
 7    1  0.1093753E+005  0.1043930E+01  0.7957747E-01            NaN
         13   -1    0    0    0    0  0.00000000000E+00  0.00000000000E+00  0.74505805969E-08  0.10566000000E+00  0.10566000000E+00 0.  1.
     999900   -1    0    0    0    0 -0.00000000000E+00 -0.00000000000E+00 -0.74505805969E-08  0.93827000000E+00  0.93827000000E+00 0.  1.
     999903    2    1    2    0    0  0.44973872099E-01 -0.55403775210E-01 -0.39272246372E-01  0.85064746299E-01  0.24524971940E-01 0.  0.
         14    1    1    2    0    0 -0.99022345424E-02  0.54795421744E-01 -0.48447213681E-01  0.73808705493E-01  0.00000000000E+00 0. -1.
     999901    1    1    2    0    0 -0.35071637556E-01  0.60835346646E-03  0.87719460054E-01  0.88505654821E+00  0.88000000000E+00 0. -1.
        -11    1    3    3    0    0 -0.22693558017E-03 -0.11516176981E-01 -0.15555494519E-02  0.11634203330E-01  0.51100000000E-03 0. -1.
         11    1    3    3    0    0  0.45200807679E-01 -0.43887598229E-01 -0.37716696921E-01  0.73430542969E-01  0.51100000000E-03 0.  1.
</event>
<event>
 8    1  0.1093753E+005  0.1043930E+01  0.7957747E-01            NaN
         13   -1    0    0    0    0  0.00000000000E+00  0.00000000000E+00  0.74505805969E-08  0.10566000000E+00  0.10566000000E+00 0. -1.
     999900   -1    0    0    0    0 -0.00000000000E+00 -0.00000000000E+00 -0.74505805969E-08  0.93827000000E+00  0.93827000000E+00 0. -1.
     999902    2    1    2    0    0 -0.11150657165E-01  0.10028625965E-03  0.20638947325E-01  0.10204712413E+01  0.10202015688E+01 0.  0.
     999903    2    3    3    0    0  0.72114462462E-01  0.35408690138E-01  0.10311106291E+00  0.13199984989E+00  0.18379282929E-01 0.  0.
         14    1    1    2    0    0  0.11150657165E-01 -0.10028625965E-03 -0.20638947325E-01  0.23458758689E-01  0.00000000000E+00 0.  1.
     999901    1    3    3    0    0 -0.83265119627E-01 -0.35308403878E-01 -0.82472115590E-01  0.88847139143E+00  0.88000000000E+00 0. -1.
        -11    1    4    4    0    0  0.52914284502E-01  0.26827606166E-01  0.87863933318E-01  0.10601874295E+00  0.51100000000E-03 0. -1.
         11    1    4    4    0    0  0.19200177960E-01  0.85810839714E-02  0.15247129597E-01  0.25981106938E-01  0.51100000000E-03 0.  1.
</event>
<event>
 8    1  0.1093753E+005  0.1043930E+01  0.7957747E-01            NaN
         13   -1    0    0    0    0  0.00000000000E+00  0.00000000000E+00  0.74505805969E-08  0.10566000000E+00  0.10566000000E+00 0.  1.
     999900   -1    0    0    0    0 -0.00000000000E+00 -0.00000000000E+00 -0.74505805969E-08  0.93827000000E+00  0.93827000000E+00 0. -1.
     999902    2    1    2    0    0 -0.86803062192E-02 -0.37144720639E-02 -0.21947884958E-01  0.10200374348E+01  0.10197575759E+01 0.  0.
     999903    2    3    3    0    0  0.93299526582E-01  0.17877200934E-01  0.82926030249E-01  0.12770082523E+00  0.20158826822E-01 0.  0.
         14    1    1    2    0    0  0.86803062192E-02  0.37144720639E-02  0.21947884958E-01  0.23892565223E-01  0.00000000000E+00 0.  1.
     999901    1    3    3    0    0 -0.10197983280E+00 -0.21591672998E-01 -0.10487391521E+00  0.89233660954E+00  0.88000000000E+00 0. -1.
        -11    1    4    4    0    0  0.29063836876E-01  0.14539148639E-02  0.36858078289E-01  0.46963810945E-01  0.51100000000E-03 0. -1.
         11    1    4    4    0    0  0.64235689707E-01  0.16423286070E-01  0.46067951960E-01  0.80737014288E-01  0.51100000000E-03 0.  1.
</event>
<event>
 8    1  0.1093753E+005  0.1043930E+01  0.7957747E-01            NaN
         13   -1    0    0    0    0  0.00000000000E+00  0.00000000000E+00  0.74505805969E-08  0.10566000000E+00  0.10566000000E+00 0. -1.
     999900   -1    0    0    0    0 -0.00000000000E+00 -0.00000000000E+00 -0.74505805969E-08  0.93827000000E+00  0.93827000000E+00 0.  1.
     999902    2    1    2    0    0  0.12192914923E-01  0.14878931033E-01  0.94361036716E-02  0.10225036187E+01  0.10222791011E+01 0.  0.
     999903    2    3    3    0    0  0.85643819008E-01 -0.12097880771E-01  0.10054023692E+00  0.13434668055E+00  0.21435225275E-01 0.  0.
         14    1    1    2    0    0 -0.12192914923E-01 -0.14878931033E-01 -0.94361036716E-02  0.21426381298E-01  0.00000000000E+00 0.  1.
     999901    1    3    3    0    0 -0.73450904084E-01  0.26976811804E-01 -0.91104133248E-01  0.88815693815E+00  0.88000000000E+00 0.  1.
        -11    1    4    4    0    0  0.25873587653E-01 -0.15607578815E-02  0.16683282420E-01  0.30829718398E-01  0.51100000000E-03 0.  1.
         11    1    4    4    0    0  0.59770231355E-01 -0.10537122889E-01  0.83856954500E-01  0.10351696216E+00  0.51100000000E-03 0. -1.
</event>
<event>
 7    1  0.1093753E+005  0.1043930E+01  0.7957747E-01            NaN
         13   -1    0    0    0    0  0.00000000000E+00  0.00000000000E+00  0.74505805969E-08  0.10566000000E+00  0.10566000000E+00 0.  1.
     999900   -1    0    0    0    0 -0.00000000000E+00 -0.00000000000E+00 -0.74505805969E-08  0.93827000000E+00  0.93827000000E+00 0.  1.
     999903    2    1    2    0    0 -0.32889866287E-01 -0.10438005531E+00  0.27776931359E-02  0.11128068682E+00  0.19968385715E-01 0.  0.
         14    1    1    2    0    0 -0.55392489175E-02  0.92971037378E-02 -0.44416222099E-01  0.45715645047E-01  0.00000000000E+00 0. -1.
     999901    1    1    2    0    0  0.38429115204E-01  0.95082951576E-01  0.41638528963E-01  0.88693366813E+00  0.88000000000E+00 0. -1.
        -11    1    3    3    0    0 -0.15058973190E-01 -0.72099310488E-01 -0.40680407941E-02  0.73769189526E-01  0.51100000000E-03 0. -1.
         11    1    3    3    0    0 -0.17830893097E-01 -0.32280744826E-01  0.68457339300E-02  0.37511497293E-01  0.51100000000E-03 0.  1.
</event>
<event>
 8    1  0.1093753E+005  0.1043930E+01  0.7957747E-01            NaN
         13   -1    0    0    0    0  0.00000000000E+00  0.00000000000E+00  0.74505805969E-08  0.10566000000E+00  0.10566000000E+00 0. -1.
     999900   -1    0    0    0    0 -0.00000000000E+00 -0.00000000000E+00 -0.74505805969E-08  0.93827000000E+00  0.93827000000E+00 0. -1.
     999902    2    1    2    0    0 -0.10918223698E-01  0.35802831774E-03 -0.17915586825E-01  0.10229465769E+01  0.10227313407E+01 0.  0.
     999903    2    3    3    0    0 -0.39758996204E-01  0.99544692734E-01  0.75035010841E-01  0.13204276720E+00  0.17751503822E-01 0.  0.
         14    1    1    2    0    0  0.10918223698E-01 -0.35802831774E-03  0.17915586825E-01  0.20983423083E-01  0.00000000000E+00 0. -1.
     999901    1    3    3    0    0  0.28840772507E-01 -0.99186664416E-01 -0.92950597666E-01  0.89090380971E+00  0.88000000000E+00 0. -1.
        -11    1    4    4    0    0 -0.34275873225E-01  0.65953733489E-01  0.55803651341E-01  0.92946431187E-01  0.51100000000E-03 0.  1.
         11    1    4    4    0    0 -0.54831229794E-02  0.33590959245E-01  0.19231359500E-01  0.39096336015E-01  0.51100000000E-03 0. -1.
</event>
<event>
 8    1  0.1093753E+005  0.1043930E+01  0.7957747E-01            NaN
         13   -1    0    0    0    0  0.00000000000E+00  0.00000000000E+00  0.74505805969E-08  0.10566000000E+00  0.10566000000E+00 0.  1.
     999900   -1    0    0    0    0 -0.00000000000E+00 -0.00000000000E+00 -0.74505805969E-08  0.93827000000E+00  0.93827000000E+00 0. -1.
     999902    2    1    2    0    0  0.20273503622E-01  0.10448349566E-01  0.46750097762E-02  0.10206482760E+01  0.10203827049E+01 0.  0.
     999903    2    3    3    0    0  0.44265657003E-01 -0.73929808165E-01 -0.96035677287E-01  0.13057078528E+00  0.20020332968E-01 0.  0.
         14    1    1    2    0    0 -0.20273503622E-01 -0.10448349566E-01 -0.46750097762E-02  0.23281724038E-01  0.00000000000E+00 0. -1.
     999901    1    3    3    0    0 -0.23992153381E-01  0.84378157731E-01  0.10071068706E+00  0.89007749068E+00  0.88000000000E+00 0.  1.
        -11    1    4    4    0    0  0.36949338891E-01 -0.57197240243E-01 -0.86102796967E-01  0.10977582021E+00  0.51100000000E-03 0.  1.
         11    1    4    4    0    0  0.73163181119E-02 -0.16732567922E-01 -0.99328803196E-02  0.20794965074E-01  0.51100000000E-03 0. -1.
</event>
<event>
 8    1  0.1093753E+005  0.1043930E+01  0.7957747E-01            NaN
         13   -1    0    0    0    0  0.00000000000E+00  0.00000000000E+00  0.74505805969E-08  0.10566000000E+00  0.10566000000E+00 0. -1.
     999900   -1    0    0    0    0 -0.00000000000E+00 -0.00000000000E+00 -0.74505805969E-08  0.93827000000E+00  0.93827000000E+00 0.  1.
     999902    2    1    2    0    0  0.14281508241E-01  0.99439061737E-03  0.19198675275E-01  0.10199813169E+01  0.10197001262E+01 0.  0.
     999903    2    3    3    0    0  0.52151026740E-02  0.66862151493E-01  0.11246605101E+00  0.13255832586E+00  0.20624076423E-01 0.  0.
         14    1    1    2    0    0 -0.14281508241E-01 -0.99439061737E-03 -0.19198675275E-01  0.23948683109E-01  0.00000000000E+00 0.  1.
     999901    1    3    3    0    0  0.90664055670E-02 -0.65867760876E-01 -0.93267375731E-01  0.88742299103E+00  0.88000000000E+00 0.  1.
        -11    1    4    4    0    0 -0.35333809167E-02  0.39391174243E-01  0.79254244765E-01  0.88575650284E-01  0.51100000000E-03 0. -1.
         11    1    4    4    0    0  0.87484835906E-02  0.27470977251E-01  0.33211806240E-01  0.43982675578E-01  0.51100000000E-03 0.  1.
</event>
<event>
 8    1  0.1093753E+005  0.1043930E+01  0.7957747E-01            NaN
         13   -1    0    0    0    0  0.00000000000E+00  0.00000000000E+00  0.74505805969E-08  0.10566000000E+00  0.10566000000E+00 0.  1.
     999900   -1    0    0    0    0 -0.00000000000E+00 -0.00000000000E+00 -0.74505805969E-08  0.93827000000E+00  0.93827000000E+00 0. -1.
     999902    2    1    2    0    0  0.17545922061E-01 -0.56581561745E-03 -0.16110770277E-01  0.10201027793E+01  0.10198244672E+01 0.  0.
     999903    2    3    3    0    0 -0.50587515611E-01 -0.25838580837E-01 -0.11694934875E+00  0.13136811871E+00  0.18807005208E-01 0.  0.
         14    1    1    2    0    0 -0.17545922061E-01  0.56581561745E-03  0.16110770277E-01  0.23827220719E-01  0.00000000000E+00 0.  1.
     999901    1    3    3    0    0  0.68133437672E-01  0.25272765220E-01  0.10083857847E+00  0.88873466057E+00  0.88000000000E+00 0.  1.
        -11    1    4    4    0    0 -0.82082030795E-02 -0.66707724883E-02 -0.92786118129E-02  0.14079331005E-01  0.51100000000E-03 0.  1.
         11    1    4    4    0    0 -0.42379312532E-01 -0.19167808349E-01 -0.10767073694E+00  0.11728878771E+00  0.51100000000E-03 0. -1.
</event>
<event>
 8    1  0.1093753E+005  0.1043930E+01  0.7957747E-01            NaN
         13   -1    0    0    0    0  0.00000000000E+00  0.00000000000E+00  0.74505805969E-08  0.10566000000E+00  0.10566000000E+00 0.  1.
     999900   -1    0    0    0    0 -0.00000000000E+00 -0.00000000000E+00 -0.74505805969E-08  0.93827000000E+00  0.93827000000E+00 0.  1.
     999902    2    1    2    0    0 -0.30361295013E-02  0.22900452195E-01  0.69865927041E-02  0.10197957656E+01  0.10195101482E+01 0.  0.
     999903    2    3    3    0    0 -0.80471507167E-01  0.48843983683E-01  0.90378020049E-01  0.13208892507E+00  0.20442588177E-01 0.  0.
         14    1    1    2    0    0  0.30361295013E-02 -0.22900452195E-01 -0.69865927041E-02  0.24134234413E-01  0.00000000000E+00 0. -1.
     999901    1    3    3    0    0  0.77435377666E-01 -0.25943531487E-01 -0.83391427345E-01  0.88770684051E+00  0.88000000000E+00 0. -1.
        -11    1    4    4    0    0 -0.61213691469E-01  0.39767578758E-01  0.57538847843E-01  0.92949214497E-01  0.51100000000E-03 0. -1.
         11    1    4    4    0    0 -0.19257815698E-01  0.90764049246E-02  0.32839172206E-01  0.39139710576E-01  0.51100000000E-03 0.  1.
</event>
<event>
 8    1  0.1093753E+005  0.1043930E+01  0.7957747E-01            NaN
         13   -1    0    0    0    0  0.00000000000E+00  0.00000000000E+00  0.74505805969E-08  0.10566000000E+00  0.10566000000E+00 0. -1.
     999900   -1    0    0    0    0 -0.00000000000E+00 -0.00000000000E+00 -0.74505805969E-08  0.93827000000E+00  0.93827000000E+00 0.  1.
     999902    2    1    2    0    0  0.85300070328E-02 -0.50041948533E-02  0.23065932563E-01  0.10188333821E+01  0.10185242364E+01 0.  0.
     999903    2    3    3    0    0 -0.11054003575E+00 -0.55217672823E-01  0.33371401310E-01  0.12933618077E+00  0.18603933321E-01 0.  0.
         14    1    1    2    0    0 -0.85300070328E-02  0.50041948533E-02 -0.23065932563E-01  0.25096617922E-01  0.00000000000E+00 0.  1.
     999901    1    3    3    0    0  0.11907004278E+00  0.50213477970E-01 -0.10305468747E-01  0.88949720131E+00  0.88000000000E+00 0. -1.
        -11    1    4    4    0    0 -0.10583402458E+00 -0.53109661998E-01  0.27614604450E-01  0.12159072521E+00  0.51100000000E-03 0.  1.
         11    1    4    4    0    0 -0.47060111669E-02 -0.21080108246E-02  0.57567968604E-02  0.77454555600E-02  0.51100000000E-03 0. -1.
</event>
<event>
 8    1  0.1093753E+005  0.1043930E+01  0.7957747E-01            NaN
         13   -1    0    0    0    0  0.00000000000E+00  0.00000000000E+00  0.74505805969E-08  0.10566000000E+00  0.10566000000E+00 0. -1.
     999900   -1    0    0    0    0 -0.00000000000E+00 -0.00000000000E+00 -0.74505805969E-08  0.93827000000E+00  0.93827000000E+00 0. -1.
     999902    2    1    2    0    0 -0.16121633099E-01  0.14990668643E-01  0.10579064687E-01  0.10195057536E+01  0.10192131465E+01 0.  0.
     999903    2    3    3    0    0 -0.12341142879E+00  0.40370360973E-01 -0.14426739920E-01  0.13227381142E+00  0.20690180340E-01 0.  0.
         14    1    1    2    0    0  0.16121633099E-01 -0.14990668643E-01 -0.10579064687E-01  0.24424246350E-01  0.00000000000E+00 0.  1.
     999901    1    3    3    0    0  0.10728979569E+00 -0.25379692330E-01  0.25005804606E-01  0.88723194223E+00  0.88000000000E+00 0.  1.
        -11    1    4    4    0    0 -0.11594875124E+00  0.42833662473E-01 -0.13669331393E-01  0.12436216184E+00  0.51100000000E-03 0.  1.
         11    1    4    4    0    0 -0.74626775523E-02 -0.24633015000E-02 -0.75740852658E-03  0.79116495882E-02  0.51100000000E-03 0. -1.
</event>
<event>
 8    1  0.1093753E+005  0.1043930E+01  0.7957747E-01            NaN
         13   -1    0    0    0    0  0.00000000000E+00  0.00000000000E+00  0.74505805969E-08  0.10566000000E+00  0.10566000000E+00 0.  1.
     999900   -1    0    0    0    0 -0.00000000000E+00 -0.00000000000E+00 -0.74505805969E-08  0.93827000000E+00  0.93827000000E+00 0.  1.
     999902    2    1    2    0    0 -0.11387572735E-01 -0.17111458889E-01  0.75743845819E-02  0.10220245180E+01  0.10217897364E+01 0.  0.
     999903    2    3    3    0    0  0.64470948372E-01  0.77720543629E-01  0.81252613358E-01  0.13063453306E+00  0.16322008593E-01 0.  0.
         14    1    1    2    0    0  0.11387572735E-01  0.17111458889E-01 -0.75743845819E-02  0.21905481960E-01  0.00000000000E+00 0.  1.
     999901    1    3    3    0    0 -0.75858521106E-01 -0.94832002518E-01 -0.73678228776E-01  0.89138998498E+00  0.88000000000E+00 0. -1.
        -11    1    4    4    0    0  0.20350114307E-01  0.29923945696E-01  0.20328097977E-01  0.41509786396E-01  0.51100000000E-03 0.  1.
         11    1    4    4    0    0  0.44120834064E-01  0.47796597934E-01  0.60924515381E-01  0.89124746664E-01  0.51100000000E-03 0. -1.
</event>
<event>
 8    1  0.1093753E+005  0.1043930E+01  0.7957747E-01            NaN
         13   -1    0    0    0    0  0.00000000000E+00  0.00000000000E+00  0.74505805969E-08  0.10566000000E+00  0.10566000000E+00 0. -1.
     999900   -1    0    0    0    0 -0.00000000000E+00 -0.00000000000E+00 -0.74505805969E-08  0.93827000000E+00  0.93827000000E+00 0.  1.
     999902    2    1    2    0    0 -0.93348126360E-02 -0.19529373260E-01  0.10106393203E-01  0.10200412091E+01  0.10197614397E+01 0.  0.
     999903    2    3    3    0    0 -0.48965155851E-01 -0.11462219848E+00  0.42774284737E-01  0.13342945605E+00  0.20927145881E-01 0.  0.
         14    1    1    2    0    0  0.93348126360E-02  0.19529373260E-01 -0.10106393203E-01  0.23888790896E-01  0.00000000000E+00 0. -1.
     999901    1    3    3    0    0  0.39630343215E-01  0.95092825225E-01 -0.32667891534E-01  0.88661175305E+00  0.88000000000E+00 0. -1.
        -11    1    4    4    0    0 -0.72307201688E-02 -0.39676245836E-01  0.96432609827E-02  0.41469764904E-01  0.51100000000E-03 0.  1.
         11    1    4    4    0    0 -0.41734435682E-01 -0.74945952649E-01  0.33131023754E-01  0.91959691148E-01  0.51100000000E-03 0. -1.
</event>
<event>
 8    1  0.1093753E+005  0.1043930E+01  0.7957747E-01            NaN
         13   -1    0    0    0    0  0.00000000000E+00  0.00000000000E+00  0.74505805969E-08  0.10566000000E+00  0.10566000000E+00 0. -1.
     999900   -1    0    0    0    0 -0.00000000000E+00 -0.00000000000E+00 -0.74505805969E-08  0.93827000000E+00  0.93827000000E+00 0.  1.
     999902    2    1    2    0    0 -0.10141795900E-01  0.12747111674E-02  0.22180316042E-01  0.10195077288E+01  0.10192151695E+01 0.  0.
     999903    2    3    3    0    0 -0.90581557853E-01 -0.39740630205E-01  0.85887254675E-01  0.13259657901E+00  0.20515748504E-01 0.  0.
         14    1    1    2    0    0  0.10141795900E-01 -0.12747111674E-02 -0.22180316042E-01  0.24422271237E-01  0.00000000000E+00 0.  1.
     999901    1    3    3    0    0  0.80439761952E-01  0.41015341372E-01 -0.63706938633E-01  0.88691114976E+00  0.88000000000E+00 0.  1.
        -11    1    4    4    0    0 -0.47872716705E-01 -0.13152801069E-01  0.52245917185E-01  0.72074199019E-01  0.51100000000E-03 0. -1.
         11    1    4    4    0    0 -0.42708841148E-01 -0.26587829136E-01  0.33641337490E-01  0.60522379988E-01  0.51100000000E-03 0.  1.
</event>
<event>
 8    1  0.1093753E+005  0.1043930E+01  0.7957747E-01            NaN
         13   -1    0    0    0    0  0.00000000000E+00  0.00000000000E+00  0.74505805969E-08  0.10566000000E+00  0.10566000000E+00 0. -1.
     999900   -1    0    0    0    0 -0.00000000000E+00 -0.00000000000E+00 -0.74505805969E-08  0.93827000000E+00  0.93827000000E+00 0. -1.
     999902    2    1    2    0    0  0.15419446919E-01  0.17503597385E-01 -0.21196131046E-02  0.10205071901E+01  0.10202383530E+01 0.  0.
     999903    2    3    3    0    0  0.10835318124E+00 -0.68649699026E-01  0.18704038949E-01  0.13118571056E+00  0.20165726414E-01 0.  0.
         14    1    1    2    0    0 -0.15419446919E-01 -0.17503597385E-01  0.21196131046E-02  0.23422809917E-01  0.00000000000E+00 0. -1.
     999901    1    3    3    0    0 -0.92933734316E-01  0.86153296411E-01 -0.20823652054E-01  0.88932147952E+00  0.88000000000E+00 0.  1.
        -11    1    4    4    0    0  0.84004294320E-01 -0.62451356407E-01  0.16340616831E-01  0.10594418465E+00  0.51100000000E-03 0.  1.
         11    1    4    4    0    0  0.24348886916E-01 -0.61983426190E-02  0.23634221182E-02  0.25241525912E-01  0.51100000000E-03 0. -1.
</event>
<event>
 8    1  0.1093753E+005  0.1043930E+01  0.7957747E-01            NaN
         13   -1    0    0    0    0  0.00000000000E+00  0.00000000000E+00  0.74505805969E-08  0.10566000000E+00  0.10566000000E+00 0.  1.
     999900   -1    0    0    0    0 -0.00000000000E+00 -0.00000000000E+00 -0.74505805969E-08  0.93827000000E+00  0.93827000000E+00 0. -1.
     999902    2    1    2    0    0  0.68335094688E-02 -0.19577344807E-01 -0.10185581251E-01  0.10208277199E+01  0.10205662734E+01 0.  0.
     999903    2    3    3    0    0  0.51363821537E-01 -0.11821966079E+00  0.28098057386E-01  0.13337130282E+00  0.19602888220E-01 0.  0.
         14    1    1    2    0    0 -0.68335094688E-02  0.19577344807E-01  0.10185581251E-01  0.23102280120E-01  0.00000000000E+00 0.  1.
     999901    1    3    3    0    0 -0.44530312068E-01  0.98642315983E-01 -0.38283638637E-01  0.88745641706E+00  0.88000000000E+00 0. -1.
        -11    1    4    4    0    0  0.23418917133E-01 -0.77476117456E-01  0.18821050428E-01  0.83099263029E-01  0.51100000000E-03 0.  1.
         11    1    4    4    0    0  0.27944904404E-01 -0.40743543334E-01  0.92770069574E-02  0.50272039790E-01  0.51100000000E-03 0. -1.
</event>
<event>
 8    1  0.1093753E+005  0.1043930E+01  0.7957747E-01            NaN
         13   -1    0    0    0    0  0.00000000000E+00  0.00000000000E+00  0.74505805969E-08  0.10566000000E+00  0.10566000000E+00 0.  1.
     999900   -1    0    0    0    0 -0.00000000000E+00 -0.00000000000E+00 -0.74505805969E-08  0.93827000000E+00  0.93827000000E+00 0.  1.
     999902    2    1    2    0    0 -0.20080878989E-01 -0.52487064067E-02  0.11701922785E-01  0.10201030066E+01  0.10198246998E+01 0.  0.
     999903    2    3    3    0    0  0.63370491728E-01 -0.12497758226E-01 -0.10852956440E+00  0.12798625941E+00  0.20731692316E-01 0.  0.
         14    1    1    2    0    0  0.20080878989E-01  0.52487064067E-02 -0.11701922785E-01  0.23826993448E-01  0.00000000000E+00 0. -1.
     999901    1    3    3    0    0 -0.83451370717E-01  0.72490518188E-02  0.12023148718E+00  0.89211674715E+00  0.88000000000E+00 0. -1.
        -11    1    4    4    0    0  0.35035106511E-01 -0.16418878971E-01 -0.54360787335E-01  0.66726266160E-01  0.51100000000E-03 0. -1.
         11    1    4    4    0    0  0.28335385217E-01  0.39211207456E-02 -0.54168777062E-01  0.61259993248E-01  0.51100000000E-03 0.  1.
</event>
<event>
 8    1  0.1093753E+005  0.1043930E+01  0.7957747E-01            NaN
         13   -1    0    0    0    0  0.00000000000E+00  0.00000000000E+00  0.74505805969E-08  0.10566000000E+00  0.10566000000E+00 0.  1.
     999900   -1    0    0    0    0 -0.00000000000E+00 -0.00000000000E+00 -0.74505805969E-08  0.93827000000E+00  0.93827000000E+00 0.  1.
     999902    2    1    2    0    0  0.22820879389E-01  0.67420455569E-04  0.28769407838E-02  0.10209283942E+01  0.10206692472E+01 0.  0.
     999903    2    3    3    0    0  0.78878131627E-01 -0.95427776786E-03 -0.10469482060E+00  0.13260686274E+00  0.20022594458E-01 0.  0.
         14    1    1    2    0    0 -0.22820879389E-01 -0.67420455569E-04 -0.28769407838E-02  0.23001605810E-01  0.00000000000E+00 0. -1.
     999901    1    3    3    0    0 -0.56057252238E-01  0.10216982234E-02  0.10757176139E+00  0.88832153145E+00  0.88000000000E+00 0. -1.
        -11    1    4    4    0    0  0.26634262717E-01 -0.92377104462E-02 -0.31177130885E-01  0.42035626033E-01  0.51100000000E-03 0.  1.
         11    1    4    4    0    0  0.52243868910E-01  0.82834326784E-02 -0.73517689717E-01  0.90571236703E-01  0.51100000000E-03 0. -1.
</event>
<event>
 8    1  0.1093753E+005  0.1043930E+01  0.7957747E-01            NaN
         13   -1    0    0    0    0  0.00000000000E+00  0.00000000000E+00  0.74505805969E-08  0.10566000000E+00  0.10566000000E+00 0.  1.
     999900   -1    0    0    0    0 -0.00000000000E+00 -0.00000000000E+00 -0.74505805969E-08  0.93827000000E+00  0.93827000000E+00 0. -1.
     999902    2    1    2    0    0  0.17912201540E-01  0.12960942200E-01  0.83147089453E-02  0.10203086670E+01  0.10200351997E+01 0.  0.
     999903    2    3    3    0    0 -0.94072892198E-01  0.16012014073E-01  0.85697723014E-01  0.12983794818E+00  0.20191567934E-01 0.  0.
         14    1    1    2    0    0 -0.17912201540E-01 -0.12960942200E-01 -0.83147089453E-02  0.23621332976E-01  0.00000000000E+00 0. -1.
     999901    1    3    3    0    0  0.11198509374E+00 -0.30510718731E-02 -0.77383014069E-01  0.89047071885E+00  0.88000000000E+00 0. -1.
        -11    1    4    4    0    0 -0.27441628168E-01  0.56883175529E-02  0.38111580644E-01  0.47309128223E-01  0.51100000000E-03 0.  1.
         11    1    4    4    0    0 -0.66631264030E-01  0.10323696520E-01  0.47586142370E-01  0.82528819953E-01  0.51100000000E-03 0. -1.
</event>
<event>
 8    1  0.1093753E+005  0.1043930E+01  0.7957747E-01            NaN
         13   -1    0    0    0    0  0.00000000000E+00  0.00000000000E+00  0.74505805969E-08  0.10566000000E+00  0.10566000000E+00 0.  1.
     999900   -1    0    0    0    0 -0.00000000000E+00 -0.00000000000E+00 -0.74505805969E-08  0.93827000000E+00  0.93827000000E+00 0. -1.
     999902    2    1    2    0    0 -0.77167433610E-03  0.23700946581E-02 -0.23491693369E-01  0.10203064421E+01  0.10200329227E+01 0.  0.
     999903    2    3    3    0    0  0.99333750538E-01  0.75111916424E-01 -0.37275240456E-01  0.13154187548E+00  0.20120324797E-01 0.  0.
         14    1    1    2    0    0  0.77167433610E-03 -0.23700946581E-02  0.23491693369E-01  0.23623557888E-01  0.00000000000E+00 0.  1.
     999901    1    3    3    0    0 -0.10010542487E+00 -0.72741821766E-01  0.13783547088E-01  0.88876456663E+00  0.88000000000E+00 0. -1.
        -11    1    4    4    0    0  0.58174311431E-01  0.55161231113E-01 -0.27591757582E-01  0.84785483049E-01  0.51100000000E-03 0. -1.
         11    1    4    4    0    0  0.41159439106E-01  0.19950685311E-01 -0.96834828744E-02  0.46756392435E-01  0.51100000000E-03 0.  1.
</event>
<event>
 8    1  0.1093753E+005  0.1043930E+01  0.7957747E-01            NaN
         13   -1    0    0    0    0  0.00000000000E+00  0.00000000000E+00  0.74505805969E-08  0.10566000000E+00  0.10566000000E+00 0.  1.
     999900   -1    0    0    0    0 -0.00000000000E+00 -0.00000000000E+00 -0.74505805969E-08  0.93827000000E+00  0.93827000000E+00 0. -1.
     999902    2    1    2    0    0 -0.10053585628E-01  0.17183190525E-01 -0.12588280442E-01  0.10203757769E+01  0.10201038794E+01 0.  0.
     999903    2    3    3    0    0 -0.95063112927E-01  0.52439942813E-01  0.71434751187E-01  0.13159597958E+00  0.20679340462E-01 0.  0.
         14    1    1    2    0    0  0.10053585628E-01 -0.17183190525E-01  0.12588280442E-01  0.23554223084E-01  0.00000000000E+00 0. -1.
     999901    1    3    3    0    0  0.85009527299E-01 -0.35256752288E-01 -0.84023031629E-01  0.88877979734E+00  0.88000000000E+00 0. -1.
        -11    1    4    4    0    0 -0.54191028564E-01  0.26995681666E-01  0.51496688170E-01  0.79483359384E-01  0.51100000000E-03 0.  1.
         11    1    4    4    0    0 -0.40872084363E-01  0.25444261147E-01  0.19938063017E-01  0.52112620193E-01  0.51100000000E-03 0. -1.
</event>
<event>
 8    1  0.1093753E+005  0.1043930E+01  0.7957747E-01            NaN
         13   -1    0    0    0    0  0.00000000000E+00  0.00000000000E+00  0.74505805969E-08  0.10566000000E+00  0.10566000000E+00 0. -1.
     999900   -1    0    0    0    0 -0.00000000000E+00 -0.00000000000E+00 -0.74505805969E-08  0.93827000000E+00  0.93827000000E+00 0.  1.
     999902    2    1    2    0    0 -0.26806958335E-03  0.36246162999E-02 -0.23322437141E-01  0.10203260643E+01  0.10200530044E+01 0.  0.
     999903    2    3    3    0    0 -0.12585709110E+00  0.16653690984E-01  0.21830952283E-01  0.13016810774E+00  0.18702753617E-01 0.  0.
         14    1    1    2    0    0  0.26806958335E-03 -0.36246162999E-02  0.23322437141E-01  0.23603935663E-01  0.00000000000E+00 0. -1.
     999901    1    3    3    0    0  0.12558902151E+00 -0.13029074684E-01 -0.45153389423E-01  0.89015795659E+00  0.88000000000E+00 0. -1.
        -11    1    4    4    0    0 -0.54930937982E-01 -0.20465648288E-02  0.96304093437E-02  0.55808621917E-01  0.51100000000E-03 0. -1.
         11    1    4    4    0    0 -0.70926153115E-01  0.18700255813E-01  0.12200542939E-01  0.74359485825E-01  0.51100000000E-03 0.  1.
</event>
<event>
 8    1  0.1093753E+005  0.1043930E+01  0.7957747E-01            NaN
         13   -1    0    0    0    0  0.00000000000E+00  0.00000000000E+00  0.74505805969E-08  0.10566000000E+00  0.10566000000E+00 0.  1.
     999900   -1    0    0    0    0 -0.00000000000E+00 -0.00000000000E+00 -0.74505805969E-08  0.93827000000E+00  0.93827000000E+00 0. -1.
     999902    2    1    2    0    0  0.62069525199E-03 -0.55333307639E-02 -0.22532265239E-01  0.10207199593E+01  0.10204560399E+01 0.  0.
     999903    2    3    3    0    0 -0.10812803575E+00  0.53513448055E-01  0.42948567555E-01  0.12965287539E+00  0.20246664049E-01 0.  0.
         14    1    1    2    0    0 -0.62069525199E-03  0.55333307639E-02  0.22532265239E-01  0.23210040688E-01  0.00000000000E+00 0.  1.
     999901    1    3    3    0    0  0.10874873100E+00 -0.59046778819E-01 -0.65480832794E-01  0.89106708392E+00  0.88000000000E+00 0. -1.
        -11    1    4    4    0    0 -0.25677671626E-01  0.10595087406E-01  0.13476396861E-02  0.27815031026E-01  0.51100000000E-03 0.  1.
         11    1    4    4    0    0 -0.82450364121E-01  0.42918360650E-01  0.41600927868E-01  0.10183784437E+00  0.51100000000E-03 0. -1.
</event>
<event>
 8    1  0.1093753E+005  0.1043930E+01  0.7957747E-01            NaN
         13   -1    0    0    0    0  0.00000000000E+00  0.00000000000E+00  0.74505805969E-08  0.10566000000E+00  0.10566000000E+00 0. -1.
     999900   -1    0    0    0    0 -0.00000000000E+00 -0.00000000000E+00 -0.74505805969E-08  0.93827000000E+00  0.93827000000E+00 0. -1.
     999902    2    1    2    0    0  0.92093226955E-02  0.18955531280E-01  0.10474662735E-01  0.10203961446E+01  0.10201247226E+01 0.  0.
     999903    2    3    3    0    0  0.12739867102E+00  0.26184214439E-01 -0.11677469620E-01  0.13218913445E+00  0.20532157833E-01 0.  0.
         14    1    1    2    0    0 -0.92093226955E-02 -0.18955531280E-01 -0.10474662735E-01  0.23533855401E-01  0.00000000000E+00 0.  1.
     999901    1    3    3    0    0 -0.11818934832E+00 -0.72286831597E-02  0.22152132355E-01  0.88820701015E+00  0.88000000000E+00 0. -1.
        -11    1    4    4    0    0  0.90923709626E-01  0.24769308121E-01 -0.15420234053E-01  0.95491802456E-01  0.51100000000E-03 0. -1.
         11    1    4    4    0    0  0.36474961394E-01  0.14149063182E-02  0.37427644333E-02  0.36697331990E-01  0.51100000000E-03 0.  1.
</event>
<event>
 8    1  0.1093753E+005  0.1043930E+01  0.7957747E-01            NaN
         13   -1    0    0    0    0  0.00000000000E+00  0.00000000000E+00  0.74505805969E-08  0.10566000000E+00  0.10566000000E+00 0.  1.
     999900   -1    0    0    0    0 -0.00000000000E+00 -0.00000000000E+00 -0.74505805969E-08  0.93827000000E+00  0.93827000000E+00 0. -1.
     999902    2    1    2    0    0  0.14426169796E-01 -0.18747836782E-01  0.77001759808E-02  0.10190525309E+01  0.10187488269E+01 0.  0.
     999903    2    3    3    0    0 -0.12280162989E+00 -0.38939550517E-02 -0.28092233382E-01  0.12757443056E+00  0.19765084558E-01 0.  0.
         14    1    1    2    0    0 -0.14426169796E-01  0.18747836782E-01 -0.77001759808E-02  0.24877469106E-01  0.00000000000E+00 0. -1.
     999901    1    3    3    0    0  0.13722779968E+00 -0.14853881731E-01  0.35792409362E-01  0.89147810033E+00  0.88000000000E+00 0.  1.
        -11    1    4    4    0    0 -0.83537274010E-01 -0.11777526320E-01 -0.17809713040E-01  0.86224319509E-01  0.51100000000E-03 0. -1.
         11    1    4    4    0    0 -0.39264355876E-01  0.78835712684E-02 -0.10282520342E-01  0.41350111051E-01  0.51100000000E-03 0.  1.
</event>
<event>
 8    1  0.1093753E+005  0.1043930E+01  0.7957747E-01            NaN
         13   -1    0    0    0    0  0.00000000000E+00  0.00000000000E+00  0.74505805969E-08  0.10566000000E+00  0.10566000000E+00 0.  1.
     999900   -1    0    0    0    0 -0.00000000000E+00 -0.00000000000E+00 -0.74505805969E-08  0.93827000000E+00  0.93827000000E+00 0. -1.
     999902    2    1    2    0    0 -0.13560298760E-01 -0.17042066324E-01 -0.95897327425E-02  0.10201334309E+01  0.10198558428E+01 0.  0.
     999903    2    3    3    0    0 -0.42548936152E-01  0.11873311386E-02  0.12083523168E+00  0.12986194232E+00  0.21240271274E-01 0.  0.
         14    1    1    2    0    0  0.13560298760E-01  0.17042066324E-01  0.95897327425E-02  0.23796569104E-01  0.00000000000E+00 0. -1.
     999901    1    3    3    0    0  0.28988637392E-01 -0.18229397463E-01 -0.13042496443E+00  0.89027148858E+00  0.88000000000E+00 0. -1.
        -11    1    4    4    0    0 -0.10383218597E-01 -0.87397098124E-02  0.28237385863E-01  0.31333765133E-01  0.51100000000E-03 0.  1.
         11    1    4    4    0    0 -0.32165717555E-01  0.99270409510E-02  0.92597845820E-01  0.98528177185E-01  0.51100000000E-03 0. -1.
</event>
<event>
 8    1  0.1093753E+005  0.1043930E+01  0.7957747E-01            NaN
         13   -1    0    0    0    0  0.00000000000E+00  0.00000000000E+00  0.74505805969E-08  0.10566000000E+00  0.10566000000E+00 0.  1.
     999900   -1    0    0    0    0 -0.00000000000E+00 -0.00000000000E+00 -0.74505805969E-08  0.93827000000E+00  0.93827000000E+00 0. -1.
     999902    2    1    2    0    0  0.16802719880E-01  0.16229845061E-01 -0.15101876538E-02  0.10205201744E+01  0.10202516388E+01 0.  0.
     999903    2    3    3    0    0  0.60061960940E-01 -0.30206112509E-01  0.11076032816E+00  0.13112019197E+00  0.20119792814E-01 0.  0.
         14    1    1    2    0    0 -0.16802719880E-01 -0.16229845061E-01  0.15101876538E-02  0.23409825561E-01  0.00000000000E+00 0.  1.
     999901    1    3    3    0    0 -0.43259241061E-01  0.46435957570E-01 -0.11227051582E+00  0.88939998247E+00  0.88000000000E+00 0. -1.
        -11    1    4    4    0    0  0.29747261794E-01 -0.83308785226E-02  0.35335750700E-01  0.46938039155E-01  0.51100000000E-03 0. -1.
         11    1    4    4    0    0  0.30314699147E-01 -0.21875233986E-01  0.75424577463E-01  0.84182152816E-01  0.51100000000E-03 0.  1.
</event>
<event>
 8    1  0.1093753E+005  0.1043930E+01  0.7957747E-01            NaN
         13   -1    0    0    0    0  0.00000000000E+00  0.00000000000E+00  0.74505805969E-08  0.10566000000E+00  0.10566000000E+00 0. -1.
     999900   -1    0    0    0    0 -0.00000000000E+00 -0.00000000000E+00 -0.74505805969E-08  0.93827000000E+00  0.93827000000E+00 0.  1.
     999902    2    1    2    0    0  0.12460879787E-01  0.14978731968E-01 -0.13679359411E-01  0.10201232612E+01  0.10198454331E+01 0.  0.
     999903    2    3    3    0    0 -0.44231467072E-01 -0.33192283870E-01  0.11354905221E+00  0.12786683079E+00  0.19959678622E-01 0.  0.
         14    1    1    2    0    0 -0.12460879787E-01 -0.14978731968E-01  0.13679359411E-01  0.23806738759E-01  0.00000000000E+00 0. -1.
     999901    1    3    3    0    0  0.56692346859E-01  0.48171015838E-01 -0.12722841162E+00  0.89225643045E+00  0.88000000000E+00 0.  1.
        -11    1    4    4    0    0 -0.13708699320E-01 -0.17745906466E-01  0.62595942876E-01  0.66493299052E-01  0.51100000000E-03 0. -1.
         11    1    4    4    0    0 -0.30522767752E-01 -0.15446377404E-01  0.50953109333E-01  0.61373531737E-01  0.51100000000E-03 0.  1.
</event>
<event>
 8    1  0.1093753E+005  0.1043930E+01  0.7957747E-01            NaN
         13   -1    0    0    0    0  0.00000000000E+00  0.00000000000E+00  0.74505805969E-08  0.10566000000E+00  0.10566000000E+00 0.  1.
     999900   -1    0    0    0    0 -0.00000000000E+00 -0.00000000000E+00 -0.74505805969E-08  0.93827000000E+00  0.93827000000E+00 0.  1.
     999902    2    1    2    0    0  0.75430331511E-02  0.12476177076E-01 -0.91010041399E-02  0.10267433593E+01  0.10265995057E+01 0.  0.
     999903    2    3    3    0    0  0.78468692661E-01  0.89480320902E-01  0.65684594495E-01  0.13738798985E+00  0.19923108270E-01 0.  0.
         14    1    1    2    0    0 -0.75430331511E-02 -0.12476177076E-01  0.91010041399E-02  0.17186640739E-01  0.00000000000E+00 0. -1.
     999901    1    3    3    0    0 -0.70925659510E-01 -0.77004143827E-01 -0.74785598635E-01  0.88935536941E+00  0.88000000000E+00 0.  1.
        -11    1    4    4    0    0  0.12991350881E-01  0.27689102240E-01  0.14989567243E-01  0.34064788678E-01  0.51100000000E-03 0. -1.
         11    1    4    4    0    0  0.65477341780E-01  0.61791218662E-01  0.50695027252E-01  0.10332320117E+00  0.51100000000E-03 0.  1.
</event>
<event>
 8    1  0.1093753E+005  0.1043930E+01  0.7957747E-01            NaN
         13   -1    0    0    0    0  0.00000000000E+00  0.00000000000E+00  0.74505805969E-08  0.10566000000E+00  0.10566000000E+00 0. -1.
     999900   -1    0    0    0    0 -0.00000000000E+00 -0.00000000000E+00 -0.74505805969E-08  0.93827000000E+00  0.93827000000E+00 0. -1.
     999902    2    1    2    0    0 -0.20878028936E-01  0.61776079972E-02  0.63048750536E-03  0.10221480706E+01  0.10219159583E+01 0.  0.
     999903    2    3    3    0    0  0.12544247958E+00  0.58800407479E-02 -0.25307342781E-01  0.12968935965E+00  0.20210834865E-01 0.  0.
         14    1    1    2    0    0  0.20878028936E-01 -0.61776079972E-02 -0.63048750536E-03  0.21781929375E-01  0.00000000000E+00 0.  1.
     999901    1    3    3    0    0 -0.14632050851E+00  0.29756724929E-03  0.25937830287E-01  0.89245871098E+00  0.88000000000E+00 0.  1.
        -11    1    4    4    0    0  0.48801693726E-01 -0.57746054615E-02 -0.40897679547E-02  0.49314690526E-01  0.51100000000E-03 0.  1.
         11    1    4    4    0    0  0.76640785851E-01  0.11654646209E-01 -0.21217574827E-01  0.80374669123E-01  0.51100000000E-03 0. -1.
</event>
<event>
 8    1  0.1093753E+005  0.1043930E+01  0.7957747E-01            NaN
         13   -1    0    0    0    0  0.00000000000E+00  0.00000000000E+00  0.74505805969E-08  0.10566000000E+00  0.10566000000E+00 0. -1.
     999900   -1    0    0    0    0 -0.00000000000E+00 -0.00000000000E+00 -0.74505805969E-08  0.93827000000E+00  0.93827000000E+00 0. -1.
     999902    2    1    2    0    0 -0.54436459878E-02 -0.47579895806E-02  0.21319247876E-01  0.10214181792E+01  0.10211700714E+01 0.  0.
     999903    2    3    3    0    0 -0.30919793639E-01 -0.25193509885E-02 -0.12383558779E+00  0.12916038464E+00  0.19615590454E-01 0.  0.
         14    1    1    2    0    0  0.54436459878E-02  0.47579895806E-02 -0.21319247876E-01  0.22511820817E-01  0.00000000000E+00 0.  1.
     999901    1    3    3    0    0  0.25476147652E-01 -0.22386385921E-02  0.14515483567E+00  0.89225779454E+00  0.88000000000E+00 0.  1.
        -11    1    4    4    0    0 -0.13742543129E-01  0.85071017974E-02 -0.49705991564E-01  0.52270211316E-01  0.51100000000E-03 0. -1.
         11    1    4    4    0    0 -0.17177250510E-01 -0.11026452786E-01 -0.74129596228E-01  0.76890173326E-01  0.51100000000E-03 0.  1.
</event>
<event>
 8    1  0.1093753E+005  0.1043930E+01  0.7957747E-01            NaN
         13   -1    0    0    0    0  0.00000000000E+00  0.00000000000E+00  0.74505805969E-08  0.10566000000E+00  0.10566000000E+00 0.  1.
     999900   -1    0    0    0    0 -0.00000000000E+00 -0.00000000000E+00 -0.74505805969E-08  0.93827000000E+00  0.93827000000E+00 0. -1.
     999902    2    1    2    0    0  0.31321459606E-01  0.87494846039E-02  0.53153915820E-02  0.10109779029E+01  0.10104407353E+01 0.  0.
     999903    2    3    3    0    0  0.70015706236E-01 -0.91587297616E-01  0.40292503861E-01  0.12374168132E+00  0.19952083176E-01 0.  0.
         14    1    1    2    0    0 -0.31321459606E-01 -0.87494846039E-02 -0.53153915820E-02  0.32952097055E-01  0.00000000000E+00 0. -1.
     999901    1    3    3    0    0 -0.38694246630E-01  0.10033678222E+00 -0.34977112279E-01  0.88723622163E+00  0.88000000000E+00 0. -1.
        -11    1    4    4    0    0  0.28707062946E-01 -0.27419483297E-01  0.63025768659E-02  0.40198347273E-01  0.51100000000E-03 0.  1.
         11    1    4    4    0    0  0.41308643290E-01 -0.64167814319E-01  0.33989926995E-01  0.83543334043E-01  0.51100000000E-03 0. -1.
</event>
<event>
 8    1  0.1093753E+005  0.1043930E+01  0.7957747E-01            NaN
         13   -1    0    0    0    0  0.00000000000E+00  0.00000000000E+00  0.74505805969E-08  0.10566000000E+00  0.10566000000E+00 0.  1.
     999900   -1    0    0    0    0 -0.00000000000E+00 -0.00000000000E+00 -0.74505805969E-08  0.93827000000E+00  0.93827000000E+00 0.  1.
     999902    2    1    2    0    0  0.14293532283E-01  0.17502864609E-01 -0.12847023525E-01  0.10179357439E+01  0.10176037920E+01 0.  0.
     999903    2    3    3    0    0  0.63046708908E-02 -0.14826853174E-01 -0.12736718431E+00  0.12989075646E+00  0.19738908890E-01 0.  0.
         14    1    1    2    0    0 -0.14293532283E-01 -0.17502864609E-01  0.12847023525E-01  0.25994256059E-01  0.00000000000E+00 0.  1.
     999901    1    3    3    0    0  0.79888613918E-02  0.32329717784E-01  0.11452016079E+00  0.88804498748E+00  0.88000000000E+00 0. -1.
        -11    1    4    4    0    0  0.67561139510E-03 -0.36008975308E-02 -0.96389189367E-01  0.96460146494E-01  0.51100000000E-03 0. -1.
         11    1    4    4    0    0  0.56290594957E-02 -0.11225955644E-01 -0.30977994947E-01  0.33430609968E-01  0.51100000000E-03 0.  1.
</event>
<event>
 8    1  0.1093753E+005  0.1043930E+01  0.7957747E-01            NaN
         13   -1    0    0    0    0  0.00000000000E+00  0.00000000000E+00  0.74505805969E-08  0.10566000000E+00  0.10566000000E+00 0.  1.
     999900   -1    0    0    0    0 -0.00000000000E+00 -0.00000000000E+00 -0.74505805969E-08  0.93827000000E+00  0.93827000000E+00 0.  1.
     999902    2    1    2    0    0 -0.10028856992E-01  0.21356218794E-01  0.32728809223E-02  0.10201103064E+01  0.10198321722E+01 0.  0.
     999903    2    3    3    0    0 -0.24585981032E-01 -0.11744144393E+00 -0.40275287833E-01  0.12804912910E+00  0.19429808007E-01 0.  0.
         14    1    1    2    0    0  0.10028856992E-01 -0.21356218794E-01 -0.32728809223E-02  0.23819693601E-01  0.00000000000E+00 0. -1.
     999901    1    3    3    0    0  0.14557124040E-01  0.13879766272E+00  0.43548168756E-01  0.89206117730E+00  0.88000000000E+00 0.  1.
        -11    1    4    4    0    0 -0.61020199942E-02 -0.54475705729E-01 -0.97772806377E-02  0.55683871097E-01  0.51100000000E-03 0.  1.
         11    1    4    4    0    0 -0.18483961038E-01 -0.62965738197E-01 -0.30498007196E-01  0.72365258006E-01  0.51100000000E-03 0. -1.
</event>
<event>
 8    1  0.1093753E+005  0.1043930E+01  0.7957747E-01            NaN
         13   -1    0    0    0    0  0.00000000000E+00  0.00000000000E+00  0.74505805969E-08  0.10566000000E+00  0.10566000000E+00 0. -1.
     999900   -1    0    0    0    0 -0.00000000000E+00 -0.00000000000E+00 -0.74505805969E-08  0.93827000000E+00  0.93827000000E+00 0.  1.
     999902    2    1    2    0    0  0.76646477566E-02  0.46836596837E-02  0.22219001801E-01  0.10199640338E+01  0.10196824323E+01 0.  0.
     999903    2    3    3    0    0 -0.29301746725E-01 -0.54379228378E-01  0.11570812812E+00  0.13227312152E+00  0.17091369843E-01 0.  0.
         14    1    1    2    0    0 -0.76646477566E-02 -0.46836596837E-02 -0.22219001801E-01  0.23965966166E-01  0.00000000000E+00 0.  1.
     999901    1    3    3    0    0  0.36966394482E-01  0.59062888061E-01 -0.93489126319E-01  0.88769091232E+00  0.88000000000E+00 0.  1.
        -11    1    4    4    0    0 -0.98717139761E-02 -0.23845339370E-01  0.32280740952E-01  0.41332291298E-01  0.51100000000E-03 0. -1.
         11    1    4    4    0    0 -0.19430032749E-01 -0.30533889007E-01  0.83427387168E-01  0.90940830221E-01  0.51100000000E-03 0.  1.
</event>
<event>
 8    1  0.1093753E+005  0.1043930E+01  0.7957747E-01            NaN
         13   -1    0    0    0    0  0.00000000000E+00  0.00000000000E+00  0.74505805969E-08  0.10566000000E+00  0.10566000000E+00 0. -1.
     999900   -1    0    0    0    0 -0.00000000000E+00 -0.00000000000E+00 -0.74505805969E-08  0.93827000000E+00  0.93827000000E+00 0.  1.
     999902    2    1    2    0    0 -0.95071438595E-02  0.20515779853E-01  0.30435625862E-02  0.10211145166E+01  0.10208595936E+01 0.  0.
     999903    2    3    3    0    0 -0.11000645925E+00  0.57727351019E-01 -0.43907596329E-01  0.13337062073E+00  0.20639218110E-01 0.  0.
         14    1    1    2    0    0  0.95071438595E-02 -0.20515779853E-01 -0.30435625862E-02  0.22815483352E-01  0.00000000000E+00 0.  1.
     999901    1    3    3    0    0  0.10049931539E+00 -0.37211571166E-01  0.46951158915E-01  0.88774389592E+00  0.88000000000E+00 0.  1.
        -11    1    4    4    0    0 -0.13974414228E-01  0.40977570814E-02  0.90285163274E-03  0.14599730415E-01  0.51100000000E-03 0. -1.
         11    1    4    4    0    0 -0.96032045026E-01  0.53629593938E-01 -0.44810447961E-01  0.11877089031E+00  0.51100000000E-03 0.  1.
</event>
<event>
 8    1  0.1093753E+005  0.1043930E+01  0.7957747E-01            NaN
         13   -1    0    0    0    0  0.00000000000E+00  0.00000000000E+00  0.74505805969E-08  0.10566000000E+00  0.10566000000E+00 0.  1.
     999900   -1    0    0    0    0 -0.00000000000E+00 -0.00000000000E+00 -0.74505805969E-08  0.93827000000E+00  0.93827000000E+00 0. -1.
     999902    2    1    2    0    0  0.19448979149E-01  0.65306206184E-03 -0.11716323985E-01  0.10212152135E+01  0.10209625609E+01 0.  0.
     999903    2    3    3    0    0 -0.11293268534E+00 -0.29404262813E-01 -0.52973605574E-01  0.12985080360E+00  0.20895602881E-01 0.  0.
         14    1    1    2    0    0 -0.19448979149E-01 -0.65306206184E-03  0.11716323985E-01  0.22714786543E-01  0.00000000000E+00 0.  1.
     999901    1    3    3    0    0  0.13238166449E+00  0.30057324875E-01  0.41257281589E-01  0.89136440985E+00  0.88000000000E+00 0.  1.
        -11    1    4    4    0    0 -0.38259745628E-01 -0.17828332553E-02 -0.11041006025E-01  0.39864163919E-01  0.51100000000E-03 0.  1.
         11    1    4    4    0    0 -0.74672939709E-01 -0.27621429558E-01 -0.41932599548E-01  0.89986639683E-01  0.51100000000E-03 0. -1.
</event>
<event>
 8    1  0.1093753E+005  0.1043930E+01  0.7957747E-01            NaN
         13   -1    0    0    0    0  0.00000000000E+00  0.00000000000E+00  0.74505805969E-08  0.10566000000E+00  0.10566000000E+00 0.  1.
     999900   -1    0    0    0    0 -0.00000000000E+00 -0.00000000000E+00 -0.74505805969E-08  0.93827000000E+00  0.93827000000E+00 0. -1.
     999902    2    1    2    0    0 -0.15757452115E-01  0.99058659436E-02  0.14055034551E-01  0.10206068897E+01  0.10203403627E+01 0.  0.
     999903    2    3    3    0    0 -0.60770745133E-01 -0.92512192379E-01 -0.65262313994E-01  0.12998525456E+00  0.19631800041E-01 0.  0.
         14    1    1    2    0    0  0.15757452115E-01 -0.99058659436E-02 -0.14055034551E-01  0.23323110288E-01  0.00000000000E+00 0.  1.
     999901    1    3    3    0    0  0.45013293017E-01  0.10241805832E+00  0.79317348545E-01  0.89062163515E+00  0.88000000000E+00 0.  1.
        -11    1    4    4    0    0 -0.26250699629E-01 -0.53180144157E-01 -0.42227989609E-01  0.72805845857E-01  0.51100000000E-03 0. -1.
         11    1    4    4    0    0 -0.34520045503E-01 -0.39332048222E-01 -0.23034324384E-01  0.57179408704E-01  0.51100000000E-03 0.  1.
</event>
<event>
 8    1  0.1093753E+005  0.1043930E+01  0.7957747E-01            NaN
         13   -1    0    0    0    0  0.00000000000E+00  0.00000000000E+00  0.74505805969E-08  0.10566000000E+00  0.10566000000E+00 0.  1.
     999900   -1    0    0    0    0 -0.00000000000E+00 -0.00000000000E+00 -0.74505805969E-08  0.93827000000E+00  0.93827000000E+00 0. -1.
     999902    2    1    2    0    0 -0.16086235855E-01  0.13810371905E-01 -0.91964755910E-02  0.10208200775E+01  0.10205584560E+01 0.  0.
     999903    2    3    3    0    0  0.12293021591E+00 -0.98032213915E-02  0.30617152313E-01  0.12870556654E+00  0.20488331022E-01 0.  0.
         14    1    1    2    0    0  0.16086235855E-01 -0.13810371905E-01  0.91964755910E-02  0.23109922532E-01  0.00000000000E+00 0.  1.
     999901    1    3    3    0    0 -0.13901645177E+00  0.23613593297E-01 -0.39813627904E-01  0.89211451093E+00  0.88000000000E+00 0.  1.
        -11    1    4    4    0    0  0.10428835951E+00 -0.13318028054E-01  0.31359782563E-01  0.10971385001E+00  0.51100000000E-03 0.  1.
         11    1    4    4    0    0  0.18641856400E-01  0.35148066621E-02 -0.74263024954E-03  0.18991716526E-01  0.51100000000E-03 0. -1.
</event>
<event>
 8    1  0.1093753E+005  0.1043930E+01  0.7957747E-01            NaN
         13   -1    0    0    0    0  0.00000000000E+00  0.00000000000E+00  0.74505805969E-08  0.10566000000E+00  0.10566000000E+00 0. -1.
     999900   -1    0    0    0    0 -0.00000000000E+00 -0.00000000000E+00 -0.74505805969E-08  0.93827000000E+00  0.93827000000E+00 0.  1.
     999902    2    1    2    0    0 -0.18549148916E-01  0.13257936566E-01 -0.33197648347E-02  0.10208894999E+01  0.10206294657E+01 0.  0.
     999903    2    3    3    0    0  0.64074668597E-02 -0.12620962241E+00  0.18596930363E-01  0.12928736091E+00  0.19986281583E-01 0.  0.
         14    1    1    2    0    0  0.18549148916E-01 -0.13257936566E-01  0.33197648347E-02  0.23040500126E-01  0.00000000000E+00 0.  1.
     999901    1    3    3    0    0 -0.24956615776E-01  0.13946755898E+00 -0.21916695197E-01  0.89160213896E+00  0.88000000000E+00 0. -1.
        -11    1    4    4    0    0  0.12614304168E-01 -0.54778968272E-01  0.94744029168E-02  0.57007731635E-01  0.51100000000E-03 0.  1.
         11    1    4    4    0    0 -0.62068373081E-02 -0.71430654138E-01  0.91225274458E-02  0.72279629274E-01  0.51100000000E-03 0. -1.
</event>
<event>
 8    1  0.1093753E+005  0.1043930E+01  0.7957747E-01            NaN
         13   -1    0    0    0    0  0.00000000000E+00  0.00000000000E+00  0.74505805969E-08  0.10566000000E+00  0.10566000000E+00 0.  1.
     999900   -1    0    0    0    0 -0.00000000000E+00 -0.00000000000E+00 -0.74505805969E-08  0.93827000000E+00  0.93827000000E+00 0. -1.
     999902    2    1    2    0    0 -0.11349153642E-01 -0.57566094727E-02  0.20350114246E-01  0.10199285627E+01  0.10196461171E+01 0.  0.
     999903    2    3    3    0    0  0.31675293496E-01  0.10435305806E+00  0.69501025530E-01  0.13066422969E+00  0.18704636504E-01 0.  0.
         14    1    1    2    0    0  0.11349153642E-01  0.57566094727E-02 -0.20350114246E-01  0.24001437266E-01  0.00000000000E+00 0. -1.
     999901    1    3    3    0    0 -0.43024447137E-01 -0.11010966754E+00 -0.49150911284E-01  0.88926433304E+00  0.88000000000E+00 0. -1.
        -11    1    4    4    0    0  0.14222770205E-01  0.76101425535E-01  0.47658911429E-01  0.90913954487E-01  0.51100000000E-03 0.  1.
         11    1    4    4    0    0  0.17452523290E-01  0.28251632528E-01  0.21842114101E-01  0.39750275208E-01  0.51100000000E-03 0. -1.
</event>
<event>
 8    1  0.1093753E+005  0.1043930E+01  0.7957747E-01            NaN
         13   -1    0    0    0    0  0.00000000000E+00  0.00000000000E+00  0.74505805969E-08  0.10566000000E+00  0.10566000000E+00 0. -1.
     999900   -1    0    0    0    0 -0.00000000000E+00 -0.00000000000E+00 -0.74505805969E-08  0.93827000000E+00  0.93827000000E+00 0. -1.
     999902    2    1    2    0    0 -0.66384679660E-02  0.39093662987E-02  0.22435694702E-01  0.10202084318E+01  0.10199326112E+01 0.  0.
     999903    2    3    3    0    0 -0.45145349863E-01  0.34795057747E-01  0.11882887443E+00  0.13356963781E+00  0.21719762597E-01 0.  0.
         14    1    1    2    0    0  0.66384679660E-02 -0.39093662987E-02 -0.22435694702E-01  0.23721568214E-01  0.00000000000E+00 0.  1.
     999901    1    3    3    0    0  0.38506881897E-01 -0.30885691449E-01 -0.96393179730E-01  0.88663879398E+00  0.88000000000E+00 0. -1.
        -11    1    4    4    0    0 -0.18048038640E-01  0.26873054026E-01  0.70893915477E-01  0.77936519708E-01  0.51100000000E-03 0.  1.
         11    1    4    4    0    0 -0.27097311223E-01  0.79220037212E-02  0.47934958955E-01  0.55633118099E-01  0.51100000000E-03 0. -1.
</event>
<event>
 8    1  0.1093753E+005  0.1043930E+01  0.7957747E-01            NaN
         13   -1    0    0    0    0  0.00000000000E+00  0.00000000000E+00  0.74505805969E-08  0.10566000000E+00  0.10566000000E+00 0.  1.
     999900   -1    0    0    0    0 -0.00000000000E+00 -0.00000000000E+00 -0.74505805969E-08  0.93827000000E+00  0.93827000000E+00 0. -1.
     999902    2    1    2    0    0 -0.18486124021E-01  0.11350354219E-01 -0.91415467861E-02  0.10203899235E+01  0.10201183563E+01 0.  0.
     999903    2    3    3    0    0  0.87065025695E-01  0.14776142191E-01 -0.93385882190E-01  0.13008105057E+00  0.20037555950E-01 0.  0.
         14    1    1    2    0    0  0.18486124021E-01 -0.11350354219E-01  0.91415467861E-02  0.23540076463E-01  0.00000000000E+00 0.  1.
     999901    1    3    3    0    0 -0.10555114972E+00 -0.34257879718E-02  0.84244335404E-01  0.89030887296E+00  0.88000000000E+00 0.  1.
        -11    1    4    4    0    0  0.17633738935E-01  0.59270207373E-02 -0.97144181317E-02  0.20993078961E-01  0.51100000000E-03 0.  1.
         11    1    4    4    0    0  0.69431286761E-01  0.88491214539E-02 -0.83671464059E-01  0.10908797161E+00  0.51100000000E-03 0. -1.
</event>
<event>
 8    1  0.1093753E+005  0.1043930E+01  0.7957747E-01            NaN
         13   -1    0    0    0    0  0.00000000000E+00  0.00000000000E+00  0.74505805969E-08  0.10566000000E+00  0.10566000000E+00 0.  1.
     999900   -1    0    0    0    0 -0.00000000000E+00 -0.00000000000E+00 -0.74505805969E-08  0.93827000000E+00  0.93827000000E+00 0. -1.
     999902    2    1    2    0    0  0.16000644699E-01  0.97158480825E-02 -0.13867690139E-01  0.10206334087E+01  0.10203674945E+01 0.  0.
     999903    2    3    3    0    0  0.11102857847E+00  0.70399316429E-01 -0.11278533697E-01  0.13343585731E+00  0.19862368980E-01 0.  0.
         14    1    1    2    0    0 -0.16000644699E-01 -0.97158480825E-02  0.13867690139E-01  0.23296591264E-01  0.00000000000E+00 0.  1.
     999901    1    3    3    0    0 -0.95027933775E-01 -0.60683468347E-01 -0.25891564413E-02  0.88719755143E+00  0.88000000000E+00 0.  1.
        -11    1    4    4    0    0  0.29607279744E-01  0.10092820302E-01 -0.67876831563E-02  0.32012338233E-01  0.51100000000E-03 0.  1.
         11    1    4    4    0    0  0.81421298730E-01  0.60306496128E-01 -0.44908505411E-02  0.10142351908E+00  0.51100000000E-03 0. -1.
</event>
<event>
 8    1  0.1093753E+005  0.1043930E+01  0.7957747E-01            NaN
         13   -1    0    0    0    0  0.00000000000E+00  0.00000000000E+00  0.74505805969E-08  0.10566000000E+00  0.10566000000E+00 0. -1.
     999900   -1    0    0    0    0 -0.00000000000E+00 -0.00000000000E+00 -0.74505805969E-08  0.93827000000E+00  0.93827000000E+00 0. -1.
     999902    2    1    2    0    0  0.16391890568E-01 -0.92482433294E-02 -0.30295243412E-01  0.10082645285E+01  0.10076335314E+01 0.  0.
     999903    2    3    3    0    0 -0.46078938354E-01  0.46831013220E-01 -0.10020725475E+00  0.12150910746E+00  0.20163257018E-01 0.  0.
         14    1    1    2    0    0 -0.16391890568E-01  0.92482433294E-02  0.30295243412E-01  0.35665471460E-01  0.00000000000E+00 0. -1.
     999901    1    3    3    0    0  0.62470828922E-01 -0.56079256549E-01  0.69912011334E-01  0.88675542108E+00  0.88000000000E+00 0.  1.
        -11    1    4    4    0    0 -0.36523463332E-01  0.27104352830E-01 -0.55844720707E-01  0.72024324141E-01  0.51100000000E-03 0. -1.
         11    1    4    4    0    0 -0.95554750224E-02  0.19726660390E-01 -0.44362534039E-01  0.49484783322E-01  0.51100000000E-03 0.  1.
</event>
<event>
 8    1  0.1093753E+005  0.1043930E+01  0.7957747E-01            NaN
         13   -1    0    0    0    0  0.00000000000E+00  0.00000000000E+00  0.74505805969E-08  0.10566000000E+00  0.10566000000E+00 0.  1.
     999900   -1    0    0    0    0 -0.00000000000E+00 -0.00000000000E+00 -0.74505805969E-08  0.93827000000E+00  0.93827000000E+00 0.  1.
     999902    2    1    2    0    0 -0.12462547265E-01 -0.16058452743E-02  0.17934227179E-01  0.10220318191E+01  0.10217971956E+01 0.  0.
     999903    2    3    3    0    0  0.11335408940E+00  0.57380859034E-01 -0.20842478704E-01  0.13028471913E+00  0.19949600320E-01 0.  0.
         14    1    1    2    0    0  0.12462547265E-01  0.16058452743E-02 -0.17934227179E-01  0.21898180927E-01  0.00000000000E+00 0. -1.
     999901    1    3    3    0    0 -0.12581663666E+00 -0.58986704308E-01  0.38776705883E-01  0.89174709995E+00  0.88000000000E+00 0. -1.
        -11    1    4    4    0    0  0.96284575812E-01  0.46893555683E-01 -0.10170103596E-01  0.10757981796E+00  0.51100000000E-03 0.  1.
         11    1    4    4    0    0  0.17069513584E-01  0.10487303351E-01 -0.10672375108E-01  0.22704901167E-01  0.51100000000E-03 0. -1.
</event>
<event>
 8    1  0.1093753E+005  0.1043930E+01  0.7957747E-01            NaN
         13   -1    0    0    0    0  0.00000000000E+00  0.00000000000E+00  0.74505805969E-08  0.10566000000E+00  0.10566000000E+00 0. -1.
     999900   -1    0    0    0    0 -0.00000000000E+00 -0.00000000000E+00 -0.74505805969E-08  0.93827000000E+00  0.93827000000E+00 0.  1.
     999902    2    1    2    0    0  0.21952878208E-01  0.54441746850E-02  0.60484627533E-02  0.10205173581E+01  0.10202487571E+01 0.  0.
     999903    2    3    3    0    0 -0.43899830272E-01  0.17905141167E-01 -0.11854628474E+00  0.12921734911E+00  0.19902575376E-01 0.  0.
         14    1    1    2    0    0 -0.21952878208E-01 -0.54441746850E-02 -0.60484627533E-02  0.23412641912E-01  0.00000000000E+00 0. -1.
     999901    1    3    3    0    0  0.65852708480E-01 -0.12460966482E-01  0.12459474750E+00  0.89130000898E+00  0.88000000000E+00 0. -1.
        -11    1    4    4    0    0 -0.14709906754E-01 -0.33814923387E-03 -0.20025589654E-01  0.24855201942E-01  0.51100000000E-03 0.  1.
         11    1    4    4    0    0 -0.29189923518E-01  0.18243290401E-01 -0.98520695090E-01  0.10436214717E+00  0.51100000000E-03 0. -1.
</event>
<event>
 8    1  0.1093753E+005  0.1043930E+01  0.7957747E-01            NaN
         13   -1    0    0    0    0  0.00000000000E+00  0.00000000000E+00  0.74505805969E-08  0.10566000000E+00  0.10566000000E+00 0.  1.
     999900   -1    0    0    0    0 -0.00000000000E+00 -0.00000000000E+00 -0.74505805969E-08  0.93827000000E+00  0.93827000000E+00 0. -1.
     999902    2    1    2    0    0  0.11333802569E-01  0.24809178517E-01  0.18568504615E-02  0.10165914135E+01  0.10162237468E+01 0.  0.
     999903    2    3    3    0    0 -0.10472050547E+00  0.12725919225E-01  0.68958096929E-01  0.12635707082E+00  0.90860843718E-02 0.  0.
         14    1    1    2    0    0 -0.11333802569E-01 -0.24809178517E-01 -0.18568504615E-02  0.27338586522E-01  0.00000000000E+00 0. -1.
     999901    1    3    3    0    0  0.11605430804E+00  0.12083259292E-01 -0.67101246468E-01  0.89023434266E+00  0.88000000000E+00 0. -1.
        -11    1    4    4    0    0 -0.19044682548E-01  0.46725901546E-02  0.97879750858E-02  0.21922559372E-01  0.51100000000E-03 0. -1.
         11    1    4    4    0    0 -0.85675822918E-01  0.80533290702E-02  0.59170121843E-01  0.10443451145E+00  0.51100000000E-03 0.  1.
</event>
<event>
 8    1  0.1093753E+005  0.1043930E+01  0.7957747E-01            NaN
         13   -1    0    0    0    0  0.00000000000E+00  0.00000000000E+00  0.74505805969E-08  0.10566000000E+00  0.10566000000E+00 0.  1.
     999900   -1    0    0    0    0 -0.00000000000E+00 -0.00000000000E+00 -0.74505805969E-08  0.93827000000E+00  0.93827000000E+00 0.  1.
     999902    2    1    2    0    0 -0.97946293254E-02 -0.19426588482E-01 -0.68249099630E-02  0.10211285417E+01  0.10208739355E+01 0.  0.
     999903    2    3    3    0    0  0.90838985064E-01  0.81034371522E-01 -0.38109015641E-01  0.12916541238E+00  0.20325257868E-01 0.  0.
         14    1    1    2    0    0  0.97946293254E-02  0.19426588482E-01  0.68249099630E-02  0.22801458280E-01  0.00000000000E+00 0.  1.
     999901    1    3    3    0    0 -0.10063361439E+00 -0.10046096000E+00  0.31284105678E-01  0.89196312934E+00  0.88000000000E+00 0.  1.
        -11    1    4    4    0    0  0.59920940495E-01  0.42405233933E-01 -0.16897646471E-01  0.75329373765E-01  0.51100000000E-03 0. -1.
         11    1    4    4    0    0  0.30918044569E-01  0.38629137589E-01 -0.21211369170E-01  0.53836038617E-01  0.51100000000E-03 0.  1.
</event>
<event>
 8    1  0.1093753E+005  0.1043930E+01  0.7957747E-01            NaN
         13   -1    0    0    0    0  0.00000000000E+00  0.00000000000E+00  0.74505805969E-08  0.10566000000E+00  0.10566000000E+00 0.  1.
     999900   -1    0    0    0    0 -0.00000000000E+00 -0.00000000000E+00 -0.74505805969E-08  0.93827000000E+00  0.93827000000E+00 0.  1.
     999902    2    1    2    0    0 -0.23985275459E-01 -0.82935444907E-02  0.81157155227E-03  0.10185383682E+01  0.10182218189E+01 0.  0.
     999903    2    3    3    0    0 -0.41545273538E-01 -0.20844238598E-01 -0.11988943431E+00  0.13003704218E+00  0.19382049519E-01 0.  0.
         14    1    1    2    0    0  0.23985275459E-01  0.82935444907E-02 -0.81157155227E-03  0.25391631839E-01  0.00000000000E+00 0.  1.
     999901    1    3    3    0    0  0.17559998079E-01  0.12550694107E-01  0.12070100586E+00  0.88850132598E+00  0.88000000000E+00 0. -1.
        -11    1    4    4    0    0 -0.13929533280E-01 -0.85678225226E-02 -0.68415912180E-01  0.70345132316E-01  0.51100000000E-03 0. -1.
         11    1    4    4    0    0 -0.27615740258E-01 -0.12276416075E-01 -0.51473522130E-01  0.59691909863E-01  0.51100000000E-03 0.  1.
</event>
<event>
 8    1  0.1093753E+005  0.1043930E+01  0.7957747E-01            NaN
         13   -1    0    0    0    0  0.00000000000E+00  0.00000000000E+00  0.74505805969E-08  0.10566000000E+00  0.10566000000E+00 0.  1.
     999900   -1    0    0    0    0 -0.00000000000E+00 -0.00000000000E+00 -0.74505805969E-08  0.93827000000E+00  0.93827000000E+00 0. -1.
     999902    2    1    2    0    0  0.14795440099E-01  0.19568838025E-01 -0.79722520451E-02  0.10181346269E+01  0.10178077998E+01 0.  0.
     999903    2    3    3    0    0 -0.53971283447E-01 -0.17715161047E-01 -0.11335689878E+00  0.12840158684E+00  0.20259679981E-01 0.  0.
         14    1    1    2    0    0 -0.14795440099E-01 -0.19568838025E-01  0.79722520451E-02  0.25795373074E-01  0.00000000000E+00 0.  1.
     999901    1    3    3    0    0  0.68766723546E-01  0.37283999071E-01  0.10538464674E+00  0.88973304009E+00  0.88000000000E+00 0.  1.
        -11    1    4    4    0    0 -0.44699096510E-01 -0.56523330902E-02 -0.86400304793E-01  0.97443480477E-01  0.51100000000E-03 0. -1.
         11    1    4    4    0    0 -0.92721869371E-02 -0.12062827956E-01 -0.26956593991E-01  0.30958106362E-01  0.51100000000E-03 0.  1.
</event>
<event>
 8    1  0.1093753E+005  0.1043930E+01  0.7957747E-01            NaN
         13   -1    0    0    0    0  0.00000000000E+00  0.00000000000E+00  0.74505805969E-08  0.10566000000E+00  0.10566000000E+00 0.  1.
     999900   -1    0    0    0    0 -0.00000000000E+00 -0.00000000000E+00 -0.74505805969E-08  0.93827000000E+00  0.93827000000E+00 0.  1.
     999902    2    1    2    0    0 -0.17332687784E-01  0.68845583200E-02 -0.14163177677E-01  0.10205117419E+01  0.10202430106E+01 0.  0.
     999903    2    3    3    0    0 -0.63416711216E-01 -0.10641008050E+00  0.36003479633E-01  0.13063753402E+00  0.20618687030E-01 0.  0.
         14    1    1    2    0    0  0.17332687784E-01 -0.68845583200E-02  0.14163177677E-01  0.23418258069E-01  0.00000000000E+00 0.  1.
     999901    1    3    3    0    0  0.46084023432E-01  0.11329463882E+00 -0.50166657310E-01  0.88987420791E+00  0.88000000000E+00 0.  1.
        -11    1    4    4    0    0 -0.45954187564E-01 -0.88525134532E-01  0.34682387706E-01  0.10560121181E+00  0.51100000000E-03 0. -1.
         11    1    4    4    0    0 -0.17462523653E-01 -0.17884945970E-01  0.13210919274E-02  0.25036322205E-01  0.51100000000E-03 0.  1.
</event>
<event>
 8    1  0.1093753E+005  0.1043930E+01  0.7957747E-01            NaN
         13   -1    0    0    0    0  0.00000000000E+00  0.00000000000E+00  0.74505805969E-08  0.10566000000E+00  0.10566000000E+00 0. -1.
     999900   -1    0    0    0    0 -0.00000000000E+00 -0.00000000000E+00 -0.74505805969E-08  0.93827000000E+00  0.93827000000E+00 0.  1.
     999902    2    1    2    0    0 -0.18259336488E-01 -0.13256190111E-01  0.84385404421E-02  0.10198397756E+01  0.10195552114E+01 0.  0.
     999903    2    3    3    0    0 -0.10579951626E+00 -0.68754716439E-01  0.38771008621E-01  0.13323759420E+00  0.18119512242E-01 0.  0.
         14    1    1    2    0    0  0.18259336488E-01  0.13256190111E-01 -0.84385404421E-02  0.24090224367E-01  0.00000000000E+00 0. -1.
     999901    1    3    3    0    0  0.87540179777E-01  0.55498526328E-01 -0.30332468179E-01  0.88660218144E+00  0.88000000000E+00 0.  1.
        -11    1    4    4    0    0 -0.72384949727E-02 -0.96932141469E-02  0.71526571469E-02  0.14063279675E-01  0.51100000000E-03 0. -1.
         11    1    4    4    0    0 -0.98561021292E-01 -0.59061502292E-01  0.31618351474E-01  0.11917431452E+00  0.51100000000E-03 0.  1.
</event>
<event>
 8    1  0.1093753E+005  0.1043930E+01  0.7957747E-01            NaN
         13   -1    0    0    0    0  0.00000000000E+00  0.00000000000E+00  0.74505805969E-08  0.10566000000E+00  0.10566000000E+00 0.  1.
     999900   -1    0    0    0    0 -0.00000000000E+00 -0.00000000000E+00 -0.74505805969E-08  0.93827000000E+00  0.93827000000E+00 0.  1.
     999902    2    1    2    0    0  0.68093441610E-02 -0.23039005133E-01 -0.99375019176E-03  0.10198852404E+01  0.10196017620E+01 0.  0.
     999903    2    3    3    0    0 -0.85756278277E-01  0.82234426289E-01 -0.42765760604E-01  0.12781136975E+00  0.19753375061E-01 0.  0.
         14    1    1    2    0    0 -0.68093441610E-02  0.23039005133E-01  0.99375019176E-03  0.24044759613E-01  0.00000000000E+00 0. -1.
     999901    1    3    3    0    0  0.92565622438E-01 -0.10527343142E+00  0.41772010412E-01  0.89207387064E+00  0.88000000000E+00 0.  1.
        -11    1    4    4    0    0 -0.55920835711E-01  0.42695172356E-01 -0.31074316882E-01  0.76914835369E-01  0.51100000000E-03 0. -1.
         11    1    4    4    0    0 -0.29835442566E-01  0.39539253933E-01 -0.11691443721E-01  0.50896534381E-01  0.51100000000E-03 0.  1.
</event>
<event>
 8    1  0.1093753E+005  0.1043930E+01  0.7957747E-01            NaN
         13   -1    0    0    0    0  0.00000000000E+00  0.00000000000E+00  0.74505805969E-08  0.10566000000E+00  0.10566000000E+00 0.  1.
     999900   -1    0    0    0    0 -0.00000000000E+00 -0.00000000000E+00 -0.74505805969E-08  0.93827000000E+00  0.93827000000E+00 0. -1.
     999902    2    1    2    0    0 -0.68763919554E-04  0.23143914769E-01  0.20181302503E-03  0.10207851032E+01  0.10205226801E+01 0.  0.
     999903    2    3    3    0    0  0.10881688766E+00 -0.56924912815E-01 -0.36751407107E-01  0.12970001032E+00  0.19745025072E-01 0.  0.
         14    1    1    2    0    0  0.68763919554E-04 -0.23143914769E-01 -0.20181302503E-03  0.23144896799E-01  0.00000000000E+00 0. -1.
     999901    1    3    3    0    0 -0.10888565158E+00  0.80068827584E-01  0.36953220132E-01  0.89108509288E+00  0.88000000000E+00 0.  1.
        -11    1    4    4    0    0  0.50019868055E-01 -0.28270773096E-01 -0.71417328008E-02  0.57900684626E-01  0.51100000000E-03 0.  1.
         11    1    4    4    0    0  0.58797019603E-01 -0.28654139719E-01 -0.29609674307E-01  0.71799325698E-01  0.51100000000E-03 0. -1.
</event>
<event>
 8    1  0.1093753E+005  0.1043930E+01  0.7957747E-01            NaN
         13   -1    0    0    0    0  0.00000000000E+00  0.00000000000E+00  0.74505805969E-08  0.10566000000E+00  0.10566000000E+00 0.  1.
     999900   -1    0    0    0    0 -0.00000000000E+00 -0.00000000000E+00 -0.74505805969E-08  0.93827000000E+00  0.93827000000E+00 0.  1.
     999902    2    1    2    0    0  0.23515152219E-02  0.22307708951E-01  0.67979527196E-02  0.10204912359E+01  0.10202220282E+01 0.  0.
     999903    2    3    3    0    0  0.67769205152E-01  0.14073942068E-02  0.11115242988E+00  0.13166833213E+00  0.19673359972E-01 0.  0.
         14    1    1    2    0    0 -0.23515152219E-02 -0.22307708951E-01 -0.67979527196E-02  0.23438764124E-01  0.00000000000E+00 0. -1.
     999901    1    3    3    0    0 -0.65417689930E-01  0.20900314744E-01 -0.10435447716E+00  0.88882290374E+00  0.88000000000E+00 0.  1.
        -11    1    4    4    0    0  0.22412971144E-01 -0.26804065255E-03  0.20929462320E-01  0.30671104240E-01  0.51100000000E-03 0. -1.
         11    1    4    4    0    0  0.45356234008E-01  0.16754348594E-02  0.90222967563E-01  0.10099722789E+00  0.51100000000E-03 0.  1.
</event>
<event>
 8    1  0.1093753E+005  0.1043930E+01  0.7957747E-01            NaN
         13   -1    0    0    0    0  0.00000000000E+00  0.00000000000E+00  0.74505805969E-08  0.10566000000E+00  0.10566000000E+00 0. -1.
     999900   -1    0    0    0    0 -0.00000000000E+00 -0.00000000000E+00 -0.74505805969E-08  0.93827000000E+00  0.93827000000E+00 0. -1.
     999902    2    1    2    0    0  0.52009157491E-02  0.33237252135E-02  0.23223274853E-01  0.10199004938E+01  0.10196173792E+01 0.  0.
     999903    2    3    3    0    0  0.15832318956E-01  0.67371227345E-01  0.11210073662E+00  0.13304407222E+00  0.18563550421E-01 0.  0.
         14    1    1    2    0    0 -0.52009157491E-02 -0.33237252135E-02 -0.23223274853E-01  0.24029506213E-01  0.00000000000E+00 0.  1.
     999901    1    3    3    0    0 -0.10631403207E-01 -0.64047502131E-01 -0.88877461770E-01  0.88685642157E+00  0.88000000000E+00 0. -1.
        -11    1    4    4    0    0  0.10942283144E-01  0.25120624311E-01  0.30368061141E-01  0.40905495775E-01  0.51100000000E-03 0.  1.
         11    1    4    4    0    0  0.48900358122E-02  0.42250603034E-01  0.81732675482E-01  0.92138576445E-01  0.51100000000E-03 0. -1.
</event>
<event>
 8    1  0.1093753E+005  0.1043930E+01  0.7957747E-01            NaN
         13   -1    0    0    0    0  0.00000000000E+00  0.00000000000E+00  0.74505805969E-08  0.10566000000E+00  0.10566000000E+00 0.  1.
     999900   -1    0    0    0    0 -0.00000000000E+00 -0.00000000000E+00 -0.74505805969E-08  0.93827000000E+00  0.93827000000E+00 0.  1.
     999902    2    1    2    0    0  0.98168833962E-02  0.20570786374E-01 -0.82669731070E-02  0.10196839427E+01  0.10193956404E+01 0.  0.
     999903    2    3    3    0    0  0.93423419173E-01 -0.86557608685E-01 -0.61257605446E-02  0.12925082859E+00  0.21168298913E-01 0.  0.
         14    1    1    2    0    0 -0.98168833962E-02 -0.20570786374E-01  0.82669731070E-02  0.24246057329E-01  0.00000000000E+00 0.  1.
     999901    1    3    3    0    0 -0.83606535777E-01  0.10712839506E+00 -0.21412125624E-02  0.89043311408E+00  0.88000000000E+00 0. -1.
        -11    1    4    4    0    0  0.38447623136E-01 -0.32251934634E-01 -0.12475149068E-01  0.51713610179E-01  0.51100000000E-03 0.  1.
         11    1    4    4    0    0  0.54975796037E-01 -0.54305674051E-01  0.63493885234E-02  0.77537218416E-01  0.51100000000E-03 0. -1.
</event>
<event>
 8    1  0.1117350E+005  0.1043930E+01  0.7957747E-01            NaN
         13   -1    0    0    0    0  0.00000000000E+00  0.00000000000E+00  0.74505805969E-08  0.10566000000E+00  0.10566000000E+00 0. -1.
     999900   -1    0    0    0    0 -0.00000000000E+00 -0.00000000000E+00 -0.74505805969E-08  0.93827000000E+00  0.93827000000E+00 0.  1.
     999902    2    1    2    0    0 -0.32020440851E-02 -0.21564708047E-01  0.81760858773E-02  0.10206461408E+01  0.10203805205E+01 0.  0.
     999903    2    3    3    0    0 -0.30727644357E-02  0.12656041180E+00  0.88251138355E-02  0.12826646314E+00  0.18639292259E-01 0.  0.
         14    1    1    2    0    0  0.32020440851E-02  0.21564708047E-01 -0.81760858773E-02  0.23283859211E-01  0.00000000000E+00 0.  1.
     999901    1    3    3    0    0 -0.12927964944E-03 -0.14812511985E+00 -0.64902795825E-03  0.89237967765E+00  0.88000000000E+00 0.  1.
        -11    1    4    4    0    0 -0.61414482762E-02  0.72421097975E-01  0.13160995588E-01  0.73864780137E-01  0.51100000000E-03 0.  1.
         11    1    4    4    0    0  0.30686838405E-02  0.54139313826E-01 -0.43358817523E-02  0.54401683004E-01  0.51100000000E-03 0. -1.
</event>
<event>
 8    1  0.1093753E+005  0.1043930E+01  0.7957747E-01            NaN
         13   -1    0    0    0    0  0.00000000000E+00  0.00000000000E+00  0.74505805969E-08  0.10566000000E+00  0.10566000000E+00 0. -1.
     999900   -1    0    0    0    0 -0.00000000000E+00 -0.00000000000E+00 -0.74505805969E-08  0.93827000000E+00  0.93827000000E+00 0.  1.
     999902    2    1    2    0    0  0.55813884793E-02 -0.32151577913E-02 -0.23353390405E-01  0.10197046005E+01  0.10194167952E+01 0.  0.
     999903    2    3    3    0    0 -0.51926539553E-01 -0.10602507444E+00  0.48973408087E-01  0.12891382456E+00  0.16813611793E-01 0.  0.
         14    1    1    2    0    0 -0.55813884793E-02  0.32151577913E-02  0.23353390405E-01  0.24225399489E-01  0.00000000000E+00 0. -1.
     999901    1    3    3    0    0  0.57507928032E-01  0.10280991665E+00 -0.72326798491E-01  0.89079077596E+00  0.88000000000E+00 0.  1.
        -11    1    4    4    0    0 -0.17282446391E-01 -0.19942262031E-01  0.91420070028E-02  0.27932314283E-01  0.51100000000E-03 0.  1.
         11    1    4    4    0    0 -0.34644093162E-01 -0.86082812411E-01  0.39831401084E-01  0.10098151027E+00  0.51100000000E-03 0. -1.
</event>
<event>
 8    1  0.1093753E+005  0.1043930E+01  0.7957747E-01            NaN
         13   -1    0    0    0    0  0.00000000000E+00  0.00000000000E+00  0.74505805969E-08  0.10566000000E+00  0.10566000000E+00 0.  1.
     999900   -1    0    0    0    0 -0.00000000000E+00 -0.00000000000E+00 -0.74505805969E-08  0.93827000000E+00  0.93827000000E+00 0. -1.
     999902    2    1    2    0    0  0.23085663075E-01 -0.35524980739E-02  0.30864881621E-02  0.10203695566E+01  0.10200975138E+01 0.  0.
     999903    2    3    3    0    0  0.95352478727E-01 -0.53984035157E-01  0.73082281435E-01  0.13320258044E+00  0.19888095070E-01 0.  0.
         14    1    1    2    0    0 -0.23085663075E-01  0.35524980739E-02 -0.30864881621E-02  0.23560443361E-01  0.00000000000E+00 0.  1.
     999901    1    3    3    0    0 -0.72266815652E-01  0.50431537083E-01 -0.69995793273E-01  0.88716697620E+00  0.88000000000E+00 0.  1.
        -11    1    4    4    0    0  0.72776160540E-01 -0.42192579429E-01  0.65519119725E-01  0.10662832397E+00  0.51100000000E-03 0.  1.
         11    1    4    4    0    0  0.22576318187E-01 -0.11791455729E-01  0.75631617097E-02  0.26574256474E-01  0.51100000000E-03 0. -1.
</event>
<event>
 8    1  0.1093753E+005  0.1043930E+01  0.7957747E-01            NaN
         13   -1    0    0    0    0  0.00000000000E+00  0.00000000000E+00  0.74505805969E-08  0.10566000000E+00  0.10566000000E+00 0.  1.
     999900   -1    0    0    0    0 -0.00000000000E+00 -0.00000000000E+00 -0.74505805969E-08  0.93827000000E+00  0.93827000000E+00 0. -1.
     999902    2    1    2    0    0 -0.44912508084E-02 -0.44217859526E-02  0.22589980990E-01  0.10204772653E+01  0.10202077329E+01 0.  0.
     999903    2    3    3    0    0 -0.74346794546E-01 -0.52802087329E-01  0.95022423663E-01  0.13342207573E+00  0.21370142905E-01 0.  0.
         14    1    1    2    0    0  0.44912508084E-02  0.44217859526E-02 -0.22589980990E-01  0.23452734722E-01  0.00000000000E+00 0. -1.
     999901    1    3    3    0    0  0.69855543737E-01  0.48380301377E-01 -0.72432442673E-01  0.88705518955E+00  0.88000000000E+00 0. -1.
        -11    1    4    4    0    0 -0.50715463301E-01 -0.47351937966E-01  0.69315767354E-01  0.98077525315E-01  0.51100000000E-03 0.  1.
         11    1    4    4    0    0 -0.23631331244E-01 -0.54501493629E-02  0.25706656309E-01  0.35344550415E-01  0.51100000000E-03 0. -1.
</event>
<event>
 8    1  0.1093753E+005  0.1043930E+01  0.7957747E-01            NaN
         13   -1    0    0    0    0  0.00000000000E+00  0.00000000000E+00  0.74505805969E-08  0.10566000000E+00  0.10566000000E+00 0. -1.
     999900   -1    0    0    0    0 -0.00000000000E+00 -0.00000000000E+00 -0.74505805969E-08  0.93827000000E+00  0.93827000000E+00 0. -1.
     999902    2    1    2    0    0 -0.38405880615E-02 -0.23766420939E-01  0.64766838315E-02  0.10189992897E+01  0.10186942682E+01 0.  0.
     999903    2    3    3    0    0  0.48346600016E-01  0.10849514127E-01 -0.11658006207E+00  0.12823291842E+00  0.19941534614E-01 0.  0.
         14    1    1    2    0    0  0.38405880615E-02  0.23766420939E-01 -0.64766838315E-02  0.24930710265E-01  0.00000000000E+00 0.  1.
     999901    1    3    3    0    0 -0.52187188078E-01 -0.34615935065E-01  0.12305674590E+00  0.89076637132E+00  0.88000000000E+00 0.  1.
        -11    1    4    4    0    0  0.28346612366E-01  0.12034235032E-01 -0.50218501348E-01  0.58911053666E-01  0.51100000000E-03 0.  1.
         11    1    4    4    0    0  0.19999987651E-01 -0.11847209050E-02 -0.66361560724E-01  0.69321864750E-01  0.51100000000E-03 0. -1.
</event>
<event>
 8    1  0.1093753E+005  0.1043930E+01  0.7957747E-01            NaN
         13   -1    0    0    0    0  0.00000000000E+00  0.00000000000E+00  0.74505805969E-08  0.10566000000E+00  0.10566000000E+00 0. -1.
     999900   -1    0    0    0    0 -0.00000000000E+00 -0.00000000000E+00 -0.74505805969E-08  0.93827000000E+00  0.93827000000E+00 0. -1.
     999902    2    1    2    0    0  0.56588032166E-02 -0.17909486745E-01 -0.14657651599E-01  0.10201052540E+01  0.10198270004E+01 0.  0.
     999903    2    3    3    0    0 -0.95779454912E-01 -0.12973681396E-01 -0.86655781384E-01  0.13134329881E+00  0.19995432042E-01 0.  0.
         14    1    1    2    0    0 -0.56588032166E-02  0.17909486745E-01  0.14657651599E-01  0.23824745953E-01  0.00000000000E+00 0. -1.
     999901    1    3    3    0    0  0.10143825813E+00 -0.49358053498E-02  0.71998129785E-01  0.88876195524E+00  0.88000000000E+00 0.  1.
        -11    1    4    4    0    0 -0.60088612690E-01 -0.15059089462E-01 -0.63684393977E-01  0.88844699941E-01  0.51100000000E-03 0.  1.
         11    1    4    4    0    0 -0.35690842222E-01  0.20854080659E-02 -0.22971387407E-01  0.42498598868E-01  0.51100000000E-03 0. -1.
</event>
<event>
 8    1  0.1093753E+005  0.1043930E+01  0.7957747E-01            NaN
         13   -1    0    0    0    0  0.00000000000E+00  0.00000000000E+00  0.74505805969E-08  0.10566000000E+00  0.10566000000E+00 0. -1.
     999900   -1    0    0    0    0 -0.00000000000E+00 -0.00000000000E+00 -0.74505805969E-08  0.93827000000E+00  0.93827000000E+00 0. -1.
     999902    2    1    2    0    0 -0.99697421924E-03  0.13027478961E-01  0.19726769663E-01  0.10202687531E+01  0.10199943499E+01 0.  0.
     999903    2    3    3    0    0 -0.94173515681E-01 -0.81577969746E-01 -0.27621762027E-01  0.12904827402E+00  0.19154087964E-01 0.  0.
         14    1    1    2    0    0  0.99697421924E-03 -0.13027478961E-01 -0.19726769663E-01  0.23661246945E-01  0.00000000000E+00 0.  1.
     999901    1    3    3    0    0  0.93176541461E-01  0.94605448706E-01  0.47348531690E-01  0.89122047904E+00  0.88000000000E+00 0. -1.
        -11    1    4    4    0    0 -0.36380949837E-01 -0.24731475750E-01 -0.17522287196E-01  0.47355158889E-01  0.51100000000E-03 0. -1.
         11    1    4    4    0    0 -0.57792565843E-01 -0.56846493996E-01 -0.10099474831E-01  0.81693115128E-01  0.51100000000E-03 0.  1.
</event>
<event>
 8    1  0.1093753E+005  0.1043930E+01  0.7957747E-01            NaN
         13   -1    0    0    0    0  0.00000000000E+00  0.00000000000E+00  0.74505805969E-08  0.10566000000E+00  0.10566000000E+00 0. -1.
     999900   -1    0    0    0    0 -0.00000000000E+00 -0.00000000000E+00 -0.74505805969E-08  0.93827000000E+00  0.93827000000E+00 0.  1.
     999902    2    1    2    0    0  0.23053616961E-01 -0.13736448632E-02  0.48374084537E-02  0.10203343081E+01  0.10200614411E+01 0.  0.
     999903    2    3    3    0    0 -0.12297280360E+00 -0.14493329061E-01 -0.24905071119E-01  0.12770871095E+00  0.18891407335E-01 0.  0.
         14    1    1    2    0    0 -0.23053616961E-01  0.13736448632E-02 -0.48374084537E-02  0.23595691890E-01  0.00000000000E+00 0. -1.
     999901    1    3    3    0    0  0.14602642057E+00  0.13119684198E-01  0.29742479573E-01  0.89262559716E+00  0.88000000000E+00 0. -1.
        -11    1    4    4    0    0 -0.77950709488E-01 -0.98185130081E-02 -0.64784101061E-02  0.78834936581E-01  0.51100000000E-03 0.  1.
         11    1    4    4    0    0 -0.45022094117E-01 -0.46748160531E-02 -0.18426661013E-01  0.48873774367E-01  0.51100000000E-03 0. -1.
</event>
<event>
 8    1  0.1093753E+005  0.1043930E+01  0.7957747E-01            NaN
         13   -1    0    0    0    0  0.00000000000E+00  0.00000000000E+00  0.74505805969E-08  0.10566000000E+00  0.10566000000E+00 0.  1.
     999900   -1    0    0    0    0 -0.00000000000E+00 -0.00000000000E+00 -0.74505805969E-08  0.93827000000E+00  0.93827000000E+00 0.  1.
     999902    2    1    2    0    0 -0.22121096772E-01 -0.21180796390E-02 -0.82075967654E-02  0.10202404701E+01  0.10199654028E+01 0.  0.
     999903    2    3    3    0    0  0.10237829424E+00  0.19091578450E-01  0.71201562543E-01  0.12768472249E+00  0.19695744451E-01 0.  0.
         14    1    1    2    0    0  0.22121096772E-01  0.21180796390E-02  0.82075967654E-02  0.23689529932E-01  0.00000000000E+00 0. -1.
     999901    1    3    3    0    0 -0.12449939101E+00 -0.21209658089E-01 -0.79409159309E-01  0.89255574758E+00  0.88000000000E+00 0.  1.
        -11    1    4    4    0    0  0.15318991459E-01  0.31330581979E-02  0.20134983617E-01  0.25498357579E-01  0.51100000000E-03 0. -1.
         11    1    4    4    0    0  0.87059302778E-01  0.15958520252E-01  0.51066578926E-01  0.10218636491E+00  0.51100000000E-03 0.  1.
</event>
<event>
 8    1  0.1093753E+005  0.1043930E+01  0.7957747E-01            NaN
         13   -1    0    0    0    0  0.00000000000E+00  0.00000000000E+00  0.74505805969E-08  0.10566000000E+00  0.10566000000E+00 0. -1.
     999900   -1    0    0    0    0 -0.00000000000E+00 -0.00000000000E+00 -0.74505805969E-08  0.93827000000E+00  0.93827000000E+00 0. -1.
     999902    2    1    2    0    0  0.21927029475E-01 -0.47131307836E-02  0.16117807787E-02  0.10214443143E+01  0.10211967887E+01 0.  0.
     999903    2    3    3    0    0 -0.11363541415E+00 -0.59222748755E-01 -0.17697795768E-02  0.12939055499E+00  0.17844951210E-01 0.  0.
         14    1    1    2    0    0 -0.21927029475E-01  0.47131307836E-02 -0.16117807787E-02  0.22485685683E-01  0.00000000000E+00 0.  1.
     999901    1    3    3    0    0  0.13556244362E+00  0.54509617971E-01  0.33815603556E-02  0.89205375932E+00  0.88000000000E+00 0.  1.
        -11    1    4    4    0    0 -0.81794187094E-01 -0.46898738558E-01 -0.82023555963E-02  0.94643121668E-01  0.51100000000E-03 0.  1.
         11    1    4    4    0    0 -0.31841227052E-01 -0.12324010197E-01  0.64325760195E-02  0.34747433326E-01  0.51100000000E-03 0. -1.
</event>
<event>
 8    1  0.1093753E+005  0.1043930E+01  0.7957747E-01            NaN
         13   -1    0    0    0    0  0.00000000000E+00  0.00000000000E+00  0.74505805969E-08  0.10566000000E+00  0.10566000000E+00 0.  1.
     999900   -1    0    0    0    0 -0.00000000000E+00 -0.00000000000E+00 -0.74505805969E-08  0.93827000000E+00  0.93827000000E+00 0. -1.
     999902    2    1    2    0    0  0.34871888773E-02 -0.20664072225E-01  0.10484582514E-01  0.10204973126E+01  0.10202282461E+01 0.  0.
     999903    2    3    3    0    0  0.36223901172E-01 -0.12424123273E+00  0.26764774130E-01  0.13366871298E+00  0.20072786793E-01 0.  0.
         14    1    1    2    0    0 -0.34871888773E-02  0.20664072225E-01 -0.10484582514E-01  0.23432687377E-01  0.00000000000E+00 0. -1.
     999901    1    3    3    0    0 -0.32736712294E-01  0.10357716050E+00 -0.16280191616E-01  0.88682859964E+00  0.88000000000E+00 0. -1.
        -11    1    4    4    0    0  0.75423389232E-02 -0.58817338012E-01  0.82537324260E-02  0.59872793047E-01  0.51100000000E-03 0.  1.
         11    1    4    4    0    0  0.28681562249E-01 -0.65423894714E-01  0.18511041704E-01  0.73795919932E-01  0.51100000000E-03 0. -1.
</event>
<event>
 8    1  0.1093753E+005  0.1043930E+01  0.7957747E-01            NaN
         13   -1    0    0    0    0  0.00000000000E+00  0.00000000000E+00  0.74505805969E-08  0.10566000000E+00  0.10566000000E+00 0. -1.
     999900   -1    0    0    0    0 -0.00000000000E+00 -0.00000000000E+00 -0.74505805969E-08  0.93827000000E+00  0.93827000000E+00 0. -1.
     999902    2    1    2    0    0  0.13156470333E-01 -0.13048622184E-01 -0.15180588015E-01  0.10199756788E+01  0.10196943541E+01 0.  0.
     999903    2    3    3    0    0 -0.75729334644E-01 -0.29285822414E-01  0.97092385631E-01  0.12825287790E+00  0.20719020792E-01 0.  0.
         14    1    1    2    0    0 -0.13156470333E-01  0.13048622184E-01  0.15180588015E-01  0.23954321218E-01  0.00000000000E+00 0. -1.
     999901    1    3    3    0    0  0.88885804977E-01  0.16237200230E-01 -0.11227297365E+00  0.89172280088E+00  0.88000000000E+00 0. -1.
        -11    1    4    4    0    0 -0.38432014650E-01 -0.99214386202E-02  0.33056506446E-01  0.51657026954E-01  0.51100000000E-03 0.  1.
         11    1    4    4    0    0 -0.37297319994E-01 -0.19364383794E-01  0.64035879185E-01  0.76595850948E-01  0.51100000000E-03 0. -1.
</event>
<event>
 8    1  0.1093753E+005  0.1043930E+01  0.7957747E-01            NaN
         13   -1    0    0    0    0  0.00000000000E+00  0.00000000000E+00  0.74505805969E-08  0.10566000000E+00  0.10566000000E+00 0. -1.
     999900   -1    0    0    0    0 -0.00000000000E+00 -0.00000000000E+00 -0.74505805969E-08  0.93827000000E+00  0.93827000000E+00 0.  1.
     999902    2    1    2    0    0  0.13218859770E-01 -0.18424393662E-01  0.55871280822E-02  0.10205759311E+01  0.10203086879E+01 0.  0.
     999903    2    3    3    0    0  0.88699355050E-01  0.25151660574E-01  0.92361811069E-01  0.13202316208E+00  0.19980729860E-01 0.  0.
         14    1    1    2    0    0 -0.13218859770E-01  0.18424393662E-01 -0.55871280822E-02  0.23354068931E-01  0.00000000000E+00 0.  1.
     999901    1    3    3    0    0 -0.75480495280E-01 -0.43576054237E-01 -0.86774682987E-01  0.88855276899E+00  0.88000000000E+00 0.  1.
        -11    1    4    4    0    0  0.32898035515E-01  0.17950771613E-01  0.29818064794E-01  0.47894561814E-01  0.51100000000E-03 0. -1.
         11    1    4    4    0    0  0.55801319534E-01  0.72008889610E-02  0.62543746275E-01  0.84128600266E-01  0.51100000000E-03 0.  1.
</event>
<event>
 8    1  0.1426034E+005  0.1043930E+01  0.7957747E-01            NaN
         13   -1    0    0    0    0  0.00000000000E+00  0.00000000000E+00  0.74505805969E-08  0.10566000000E+00  0.10566000000E+00 0.  1.
     999900   -1    0    0    0    0 -0.00000000000E+00 -0.00000000000E+00 -0.74505805969E-08  0.93827000000E+00  0.93827000000E+00 0.  1.
     999902    2    1    2    0    0  0.22152097689E-01  0.79544217544E-02  0.49353577063E-02  0.10198811744E+01  0.10195975990E+01 0.  0.
     999903    2    3    3    0    0 -0.50530401425E-01 -0.11607714586E+00  0.43938468117E-02  0.12821595208E+00  0.19819162952E-01 0.  0.
         14    1    1    2    0    0 -0.22152097689E-01 -0.79544217544E-02 -0.49353577063E-02  0.24048825609E-01  0.00000000000E+00 0. -1.
     999901    1    3    3    0    0  0.72682499114E-01  0.12403156761E+00  0.54151089460E-03  0.89166522231E+00  0.88000000000E+00 0.  1.
        -11    1    4    4    0    0 -0.23158973812E-01 -0.49951001797E-01  0.11650550972E-01  0.56279988517E-01  0.51100000000E-03 0. -1.
         11    1    4    4    0    0 -0.27371427614E-01 -0.66126144059E-01 -0.72567041599E-02  0.71935963565E-01  0.51100000000E-03 0.  1.
</event>
<event>
 8    1  0.1093753E+005  0.1043930E+01  0.7957747E-01            NaN
         13   -1    0    0    0    0  0.00000000000E+00  0.00000000000E+00  0.74505805969E-08  0.10566000000E+00  0.10566000000E+00 0.  1.
     999900   -1    0    0    0    0 -0.00000000000E+00 -0.00000000000E+00 -0.74505805969E-08  0.93827000000E+00  0.93827000000E+00 0.  1.
     999902    2    1    2    0    0 -0.14767055694E-01  0.21561393822E-02 -0.18934393425E-01  0.10198213682E+01  0.10195363637E+01 0.  0.
     999903    2    3    3    0    0 -0.10627917688E+00 -0.73051017021E-01  0.14493972037E-01  0.13125621007E+00  0.19657134322E-01 0.  0.
         14    1    1    2    0    0  0.14767055694E-01 -0.21561393822E-02  0.18934393425E-01  0.24108631759E-01  0.00000000000E+00 0.  1.
     999901    1    3    3    0    0  0.91512121189E-01  0.75207156403E-01 -0.33428365461E-01  0.88856515817E+00  0.88000000000E+00 0.  1.
        -11    1    4    4    0    0 -0.67604412511E-01 -0.48875099759E-01  0.87713653606E-04  0.83423023094E-01  0.51100000000E-03 0. -1.
         11    1    4    4    0    0 -0.38674764372E-01 -0.24175917262E-01  0.14406258383E-01  0.47833186976E-01  0.51100000000E-03 0.  1.
</event>
<event>
 8    1  0.1093753E+005  0.1043930E+01  0.7957747E-01            NaN
         13   -1    0    0    0    0  0.00000000000E+00  0.00000000000E+00  0.74505805969E-08  0.10566000000E+00  0.10566000000E+00 0.  1.
     999900   -1    0    0    0    0 -0.00000000000E+00 -0.00000000000E+00 -0.74505805969E-08  0.93827000000E+00  0.93827000000E+00 0.  1.
     999902    2    1    2    0    0  0.30172122123E-02  0.27773676240E-01  0.15690718934E-02  0.10159488877E+01  0.10155634887E+01 0.  0.
     999903    2    3    3    0    0  0.15598602748E-01  0.12633533838E+00  0.19849733329E-01  0.13016851126E+00  0.18598260115E-01 0.  0.
         14    1    1    2    0    0 -0.30172122123E-02 -0.27773676240E-01 -0.15690718934E-02  0.27981112345E-01  0.00000000000E+00 0. -1.
     999901    1    3    3    0    0 -0.12581390536E-01 -0.98561662135E-01 -0.18280661435E-01  0.88578037640E+00  0.88000000000E+00 0. -1.
        -11    1    4    4    0    0  0.16400604323E-01  0.94742548271E-01  0.82737682601E-02  0.96508272377E-01  0.51100000000E-03 0.  1.
         11    1    4    4    0    0 -0.80200157467E-03  0.31592790105E-01  0.11575965069E-01  0.33660238879E-01  0.51100000000E-03 0. -1.
</event>
<event>
 8    1  0.1093753E+005  0.1043930E+01  0.7957747E-01            NaN
         13   -1    0    0    0    0  0.00000000000E+00  0.00000000000E+00  0.74505805969E-08  0.10566000000E+00  0.10566000000E+00 0. -1.
     999900   -1    0    0    0    0 -0.00000000000E+00 -0.00000000000E+00 -0.74505805969E-08  0.93827000000E+00  0.93827000000E+00 0. -1.
     999902    2    1    2    0    0 -0.24275856082E-01  0.16052574002E-02 -0.40290727856E-02  0.10192697594E+01  0.10189714004E+01 0.  0.
     999903    2    3    3    0    0  0.79815820037E-01 -0.98086929140E-01 -0.39285556201E-02  0.12754467888E+00  0.16143133678E-01 0.  0.
         14    1    1    2    0    0  0.24275856082E-01 -0.16052574002E-02  0.40290727856E-02  0.24660240618E-01  0.00000000000E+00 0. -1.
     999901    1    3    3    0    0 -0.10409167612E+00  0.99692186540E-01 -0.10051716550E-03  0.89172508050E+00  0.88000000000E+00 0. -1.
        -11    1    4    4    0    0  0.58823065654E-01 -0.74618970614E-01 -0.97605010640E-02  0.95517916280E-01  0.51100000000E-03 0.  1.
         11    1    4    4    0    0  0.20992754383E-01 -0.23467958526E-01  0.58319454439E-02  0.32026762600E-01  0.51100000000E-03 0. -1.
</event>
<event>
 8    1  0.1093753E+005  0.1043930E+01  0.7957747E-01            NaN
         13   -1    0    0    0    0  0.00000000000E+00  0.00000000000E+00  0.74505805969E-08  0.10566000000E+00  0.10566000000E+00 0. -1.
     999900   -1    0    0    0    0 -0.00000000000E+00 -0.00000000000E+00 -0.74505805969E-08  0.93827000000E+00  0.93827000000E+00 0. -1.
     999902    2    1    2    0    0  0.10991135747E-01 -0.22358241700E-01 -0.52446479536E-02  0.10184701813E+01  0.10181519080E+01 0.  0.
     999903    2    3    3    0    0  0.12405318854E+00 -0.25640561122E-01  0.25297995807E-01  0.13070520423E+00  0.19930626146E-01 0.  0.
         14    1    1    2    0    0 -0.10991135747E-01  0.22358241700E-01  0.52446479536E-02  0.25459818716E-01  0.00000000000E+00 0. -1.
     999901    1    3    3    0    0 -0.11306205279E+00  0.32823194224E-02 -0.30542643760E-01  0.88776497706E+00  0.88000000000E+00 0. -1.
        -11    1    4    4    0    0  0.10272391643E+00 -0.24126932561E-01  0.13792600838E-01  0.10641808512E+00  0.51100000000E-03 0.  1.
         11    1    4    4    0    0  0.21329272107E-01 -0.15136285607E-02  0.11505394969E-01  0.24287119105E-01  0.51100000000E-03 0. -1.
</event>
<event>
 8    1  0.1093753E+005  0.1043930E+01  0.7957747E-01            NaN
         13   -1    0    0    0    0  0.00000000000E+00  0.00000000000E+00  0.74505805969E-08  0.10566000000E+00  0.10566000000E+00 0.  1.
     999900   -1    0    0    0    0 -0.00000000000E+00 -0.00000000000E+00 -0.74505805969E-08  0.93827000000E+00  0.93827000000E+00 0. -1.
     999902    2    1    2    0    0  0.24206010128E-01 -0.28490880723E-02 -0.75180470753E-03  0.10195453032E+01  0.10192536543E+01 0.  0.
     999903    2    3    3    0    0  0.64011627700E-02  0.53741128790E-01 -0.11634252764E+00  0.13000571414E+00  0.20900195274E-01 0.  0.
         14    1    1    2    0    0 -0.24206010128E-01  0.28490880723E-02  0.75180470753E-03  0.24384696829E-01  0.00000000000E+00 0.  1.
     999901    1    3    3    0    0  0.17804847358E-01 -0.56590216863E-01  0.11559072293E+00  0.88953958904E+00  0.88000000000E+00 0.  1.
        -11    1    4    4    0    0  0.77862355720E-02  0.12155429711E-01 -0.46654841771E-01  0.48839689982E-01  0.51100000000E-03 0.  1.
         11    1    4    4    0    0 -0.13850728019E-02  0.41585699079E-01 -0.69687685865E-01  0.81166024153E-01  0.51100000000E-03 0. -1.
</event>
<event>
 8    1  0.1093753E+005  0.1043930E+01  0.7957747E-01            NaN
         13   -1    0    0    0    0  0.00000000000E+00  0.00000000000E+00  0.74505805969E-08  0.10566000000E+00  0.10566000000E+00 0.  1.
     999900   -1    0    0    0    0 -0.00000000000E+00 -0.00000000000E+00 -0.74505805969E-08  0.93827000000E+00  0.93827000000E+00 0.  1.
     999902    2    1    2    0    0 -0.74343833614E-02 -0.69721523481E-02  0.23456941058E-01  0.10183544443E+01  0.10180332339E+01 0.  0.
     999903    2    3    3    0    0  0.97400960291E-01 -0.10332033474E-01 -0.76883907492E-01  0.12646318191E+00  0.22093056976E-01 0.  0.
         14    1    1    2    0    0  0.74343833614E-02  0.69721523481E-02 -0.23456941058E-01  0.25575555676E-01  0.00000000000E+00 0. -1.
     999901    1    3    3    0    0 -0.10483534365E+00  0.33598811261E-02  0.10034084855E+00  0.89189126241E+00  0.88000000000E+00 0. -1.
        -11    1    4    4    0    0  0.31483358011E-01 -0.13629975184E-01 -0.23707844171E-01  0.41704928382E-01  0.51100000000E-03 0.  1.
         11    1    4    4    0    0  0.65917602281E-01  0.32979417102E-02 -0.53176063321E-01  0.84758253529E-01  0.51100000000E-03 0. -1.
</event>
<event>
 8    1  0.1093753E+005  0.1043930E+01  0.7957747E-01            NaN
         13   -1    0    0    0    0  0.00000000000E+00  0.00000000000E+00  0.74505805969E-08  0.10566000000E+00  0.10566000000E+00 0.  1.
     999900   -1    0    0    0    0 -0.00000000000E+00 -0.00000000000E+00 -0.74505805969E-08  0.93827000000E+00  0.93827000000E+00 0.  1.
     999902    2    1    2    0    0  0.45960063628E-02 -0.49990085027E-02 -0.22813618137E-01  0.10201271738E+01  0.10198494380E+01 0.  0.
     999903    2    3    3    0    0 -0.73692257017E-02 -0.80147669478E-01  0.98355948585E-01  0.12857092103E+00  0.19458538063E-01 0.  0.
         14    1    1    2    0    0 -0.45960063628E-02  0.49990085027E-02  0.22813618137E-01  0.23802826155E-01  0.00000000000E+00 0.  1.
     999901    1    3    3    0    0  0.11965232065E-01  0.75148660975E-01 -0.12116956672E+00  0.89155625281E+00  0.88000000000E+00 0.  1.
        -11    1    4    4    0    0  0.51482737624E-03 -0.68730084410E-01  0.78453357021E-01  0.10430378660E+00  0.51100000000E-03 0.  1.
         11    1    4    4    0    0 -0.78840530780E-02 -0.11417585068E-01  0.19902591564E-01  0.24267134435E-01  0.51100000000E-03 0. -1.
</event>
<event>
 8    1  0.1093753E+005  0.1043930E+01  0.7957747E-01            NaN
         13   -1    0    0    0    0  0.00000000000E+00  0.00000000000E+00  0.74505805969E-08  0.10566000000E+00  0.10566000000E+00 0.  1.
     999900   -1    0    0    0    0 -0.00000000000E+00 -0.00000000000E+00 -0.74505805969E-08  0.93827000000E+00  0.93827000000E+00 0.  1.
     999902    2    1    2    0    0  0.20866037299E-01  0.10906760705E-01  0.49930227784E-02  0.10198617799E+01  0.10195777415E+01 0.  0.
     999903    2    3    3    0    0  0.11243929609E-01  0.85856269408E-01  0.97421414786E-01  0.13180039608E+00  0.19562397546E-01 0.  0.
         14    1    1    2    0    0 -0.20866037299E-01 -0.10906760705E-01 -0.49930227784E-02  0.24068220086E-01  0.00000000000E+00 0.  1.
     999901    1    3    3    0    0  0.96221076894E-02 -0.74949508704E-01 -0.92428392008E-01  0.88806138384E+00  0.88000000000E+00 0.  1.
        -11    1    4    4    0    0  0.15537745047E-01  0.66878780355E-01  0.82115278726E-01  0.10703911857E+00  0.51100000000E-03 0. -1.
         11    1    4    4    0    0 -0.42938154379E-02  0.18977489053E-01  0.15306136061E-01  0.24761277509E-01  0.51100000000E-03 0.  1.
</event>
<event>
 8    1  0.1093753E+005  0.1043930E+01  0.7957747E-01            NaN
         13   -1    0    0    0    0  0.00000000000E+00  0.00000000000E+00  0.74505805969E-08  0.10566000000E+00  0.10566000000E+00 0.  1.
     999900   -1    0    0    0    0 -0.00000000000E+00 -0.00000000000E+00 -0.74505805969E-08  0.93827000000E+00  0.93827000000E+00 0. -1.
     999902    2    1    2    0    0  0.16613229955E-01  0.16183037086E-01  0.84131977969E-02  0.10192587212E+01  0.10189600919E+01 0.  0.
     999903    2    3    3    0    0  0.47049606267E-02  0.12206643909E+00  0.46296442748E-01  0.13202242692E+00  0.19084244567E-01 0.  0.
         14    1    1    2    0    0 -0.16613229955E-01 -0.16183037086E-01 -0.84131977969E-02  0.24671278768E-01  0.00000000000E+00 0.  1.
     999901    1    3    3    0    0  0.11908269328E-01 -0.10588340201E+00 -0.37883244951E-01  0.88723629431E+00  0.88000000000E+00 0. -1.
        -11    1    4    4    0    0  0.11951943977E-01  0.79632512834E-01  0.32143578664E-01  0.86704422237E-01  0.51100000000E-03 0.  1.
         11    1    4    4    0    0 -0.72469833508E-02  0.42433926261E-01  0.14152864084E-01  0.45318004682E-01  0.51100000000E-03 0. -1.
</event>
<event>
 8    1  0.1093753E+005  0.1043930E+01  0.7957747E-01            NaN
         13   -1    0    0    0    0  0.00000000000E+00  0.00000000000E+00  0.74505805969E-08  0.10566000000E+00  0.10566000000E+00 0. -1.
     999900   -1    0    0    0    0 -0.00000000000E+00 -0.00000000000E+00 -0.74505805969E-08  0.93827000000E+00  0.93827000000E+00 0. -1.
     999902    2    1    2    0    0 -0.42034098775E-03 -0.64866657859E-02  0.22094813729E-01  0.10208988404E+01  0.10206390194E+01 0.  0.
     999903    2    3    3    0    0  0.10136949618E+00 -0.71677503935E-01 -0.35615436529E-01  0.13076318257E+00  0.20423302147E-01 0.  0.
         14    1    1    2    0    0  0.42034098775E-03  0.64866657859E-02 -0.22094813729E-01  0.23031159617E-01  0.00000000000E+00 0.  1.
     999901    1    3    3    0    0 -0.10178983717E+00  0.65190838149E-01  0.57710250258E-01  0.89013565781E+00  0.88000000000E+00 0. -1.
        -11    1    4    4    0    0  0.58463912264E-01 -0.31077483187E-01 -0.12801397716E-01  0.67438682542E-01  0.51100000000E-03 0.  1.
         11    1    4    4    0    0  0.42905583914E-01 -0.40600020748E-01 -0.22814038813E-01  0.63324500027E-01  0.51100000000E-03 0. -1.
</event>
<event>
 8    1  0.1093753E+005  0.1043930E+01  0.7957747E-01            NaN
         13   -1    0    0    0    0  0.00000000000E+00  0.00000000000E+00  0.74505805969E-08  0.10566000000E+00  0.10566000000E+00 0.  1.
     999900   -1    0    0    0    0 -0.00000000000E+00 -0.00000000000E+00 -0.74505805969E-08  0.93827000000E+00  0.93827000000E+00 0. -1.
     999902    2    1    2    0    0  0.88836958945E-02 -0.19849382595E-02  0.21196148453E-01  0.10208619107E+01  0.10206012464E+01 0.  0.
     999903    2    3    3    0    0  0.11022901768E+00 -0.44700053427E-01 -0.51164243901E-01  0.13106896759E+00  0.20316576848E-01 0.  0.
         14    1    1    2    0    0 -0.88836958945E-02  0.19849382595E-02 -0.21196148453E-01  0.23068089255E-01  0.00000000000E+00 0. -1.
     999901    1    3    3    0    0 -0.10134532179E+00  0.42715115167E-01  0.72360392354E-01  0.88979294316E+00  0.88000000000E+00 0.  1.
        -11    1    4    4    0    0  0.67675565972E-01 -0.36148639712E-01 -0.26681984822E-01  0.81233587990E-01  0.51100000000E-03 0. -1.
         11    1    4    4    0    0  0.42553451710E-01 -0.85514137145E-02 -0.24482259079E-01  0.49835379597E-01  0.51100000000E-03 0.  1.
</event>
<event>
 8    1  0.1093753E+005  0.1043930E+01  0.7957747E-01            NaN
         13   -1    0    0    0    0  0.00000000000E+00  0.00000000000E+00  0.74505805969E-08  0.10566000000E+00  0.10566000000E+00 0.  1.
     999900   -1    0    0    0    0 -0.00000000000E+00 -0.00000000000E+00 -0.74505805969E-08  0.93827000000E+00  0.93827000000E+00 0. -1.
     999902    2    1    2    0    0 -0.17074705747E-01 -0.15752485994E-01  0.27342739186E-03  0.10206972396E+01  0.10204327973E+01 0.  0.
     999903    2    3    3    0    0 -0.97646729556E-01 -0.87301913292E-01  0.43739618814E-02  0.13411504607E+00  0.28481681543E-01 0.  0.
         14    1    1    2    0    0  0.17074705747E-01  0.15752485994E-01 -0.27342739186E-03  0.23232760359E-01  0.00000000000E+00 0.  1.
     999901    1    3    3    0    0  0.80572023809E-01  0.71549427298E-01 -0.41005344895E-02  0.88658219357E+00  0.88000000000E+00 0. -1.
        -11    1    4    4    0    0 -0.90978754458E-01 -0.76790872706E-01  0.11755089190E-01  0.11963450646E+00  0.51100000000E-03 0. -1.
         11    1    4    4    0    0 -0.66679750981E-02 -0.10511040585E-01 -0.73811273083E-02  0.14480539611E-01  0.51100000000E-03 0.  1.
</event>
<event>
 8    1  0.1093753E+005  0.1043930E+01  0.7957747E-01            NaN
         13   -1    0    0    0    0  0.00000000000E+00  0.00000000000E+00  0.74505805969E-08  0.10566000000E+00  0.10566000000E+00 0.  1.
     999900   -1    0    0    0    0 -0.00000000000E+00 -0.00000000000E+00 -0.74505805969E-08  0.93827000000E+00  0.93827000000E+00 0. -1.
     999902    2    1    2    0    0 -0.99443792247E-02  0.23645260291E-02 -0.21090501226E-01  0.10204930441E+01  0.10202238784E+01 0.  0.
     999903    2    3    3    0    0 -0.12329891839E-01  0.36505496360E-01 -0.12590574196E+00  0.13361225658E+00  0.22700258875E-01 0.  0.
         14    1    1    2    0    0  0.99443792247E-02 -0.23645260291E-02  0.21090501226E-01  0.23436955934E-01  0.00000000000E+00 0.  1.
     999901    1    3    3    0    0  0.23855126141E-02 -0.34140970331E-01  0.10481524073E+00  0.88688078749E+00  0.88000000000E+00 0.  1.
        -11    1    4    4    0    0  0.45100141485E-02  0.14149000193E-01 -0.26971679434E-01  0.30793944966E-01  0.51100000000E-03 0.  1.
         11    1    4    4    0    0 -0.16839905987E-01  0.22356496167E-01 -0.98934062523E-01  0.10281831161E+00  0.51100000000E-03 0. -1.
</event>
<event>
 8    1  0.1093753E+005  0.1043930E+01  0.7957747E-01            NaN
         13   -1    0    0    0    0  0.00000000000E+00  0.00000000000E+00  0.74505805969E-08  0.10566000000E+00  0.10566000000E+00 0. -1.
     999900   -1    0    0    0    0 -0.00000000000E+00 -0.00000000000E+00 -0.74505805969E-08  0.93827000000E+00  0.93827000000E+00 0.  1.
     999902    2    1    2    0    0 -0.58087650392E-02  0.11060500458E-01 -0.19960541715E-01  0.10203821838E+01  0.10201104359E+01 0.  0.
     999903    2    3    3    0    0  0.14182946490E-01  0.53363538770E-01  0.11474061588E+00  0.12890385124E+00  0.20049206735E-01 0.  0.
         14    1    1    2    0    0  0.58087650392E-02 -0.11060500458E-01  0.19960541715E-01  0.23547816188E-01  0.00000000000E+00 0. -1.
     999901    1    3    3    0    0 -0.19991711529E-01 -0.42303038312E-01 -0.13470115760E+00  0.89147833257E+00  0.88000000000E+00 0.  1.
        -11    1    4    4    0    0  0.71576436428E-02  0.38162312421E-02  0.23107057564E-01  0.24494748696E-01  0.51100000000E-03 0. -1.
         11    1    4    4    0    0  0.70253028475E-02  0.49547307528E-01  0.91633558320E-01  0.10440910255E+00  0.51100000000E-03 0.  1.
</event>
<event>
 8    1  0.1093753E+005  0.1043930E+01  0.7957747E-01            NaN
         13   -1    0    0    0    0  0.00000000000E+00  0.00000000000E+00  0.74505805969E-08  0.10566000000E+00  0.10566000000E+00 0.  1.
     999900   -1    0    0    0    0 -0.00000000000E+00 -0.00000000000E+00 -0.74505805969E-08  0.93827000000E+00  0.93827000000E+00 0. -1.
     999902    2    1    2    0    0  0.12427299523E-02 -0.26714003031E-01  0.24618881055E-02  0.10170740281E+01  0.10167193985E+01 0.  0.
     999903    2    3    3    0    0 -0.99105389798E-02  0.11735288244E+00 -0.34866914875E-01  0.12450856692E+00  0.20414790817E-01 0.  0.
         14    1    1    2    0    0 -0.12427299523E-02  0.26714003031E-01 -0.24618881055E-02  0.26855971938E-01  0.00000000000E+00 0. -1.
     999901    1    3    3    0    0  0.11153268932E-01 -0.14406688547E+00  0.37328802980E-01  0.89256546114E+00  0.88000000000E+00 0.  1.
        -11    1    4    4    0    0  0.27330286708E-02  0.70297203682E-01 -0.25868020102E-01  0.74957200296E-01  0.51100000000E-03 0. -1.
         11    1    4    4    0    0 -0.12643567651E-01  0.47055678754E-01 -0.89988947725E-02  0.49551366621E-01  0.51100000000E-03 0.  1.
</event>
<event>
 8    1  0.1093753E+005  0.1043930E+01  0.7957747E-01            NaN
         13   -1    0    0    0    0  0.00000000000E+00  0.00000000000E+00  0.74505805969E-08  0.10566000000E+00  0.10566000000E+00 0. -1.
     999900   -1    0    0    0    0 -0.00000000000E+00 -0.00000000000E+00 -0.74505805969E-08  0.93827000000E+00  0.93827000000E+00 0. -1.
     999902    2    1    2    0    0 -0.72000073324E-02  0.20883226071E-01 -0.89301114087E-02  0.10201036254E+01  0.10198253333E+01 0.  0.
     999903    2    3    3    0    0 -0.45161655043E-01 -0.10586751783E+00  0.52666737160E-01  0.12808288039E+00  0.19594198872E-01 0.  0.
         14    1    1    2    0    0  0.72000073324E-02 -0.20883226071E-01  0.89301114087E-02  0.23826374598E-01  0.00000000000E+00 0. -1.
     999901    1    3    3    0    0  0.37961647710E-01  0.12675074390E+00 -0.61596848569E-01  0.89202074501E+00  0.88000000000E+00 0.  1.
        -11    1    4    4    0    0 -0.15884412251E-01 -0.35200533716E-01  0.77983789765E-02  0.39401370053E-01  0.51100000000E-03 0.  1.
         11    1    4    4    0    0 -0.29277242792E-01 -0.70666984110E-01  0.44868358184E-01  0.88681510338E-01  0.51100000000E-03 0. -1.
</event>
<event>
 8    1  0.1093753E+005  0.1043930E+01  0.7957747E-01            NaN
         13   -1    0    0    0    0  0.00000000000E+00  0.00000000000E+00  0.74505805969E-08  0.10566000000E+00  0.10566000000E+00 0. -1.
     999900   -1    0    0    0    0 -0.00000000000E+00 -0.00000000000E+00 -0.74505805969E-08  0.93827000000E+00  0.93827000000E+00 0. -1.
     999902    2    1    2    0    0  0.18328809812E-01 -0.43247862352E-02  0.15649344200E-01  0.10194442691E+01  0.10191501689E+01 0.  0.
     999903    2    3    3    0    0  0.38195425866E-01  0.12022562988E+00 -0.24812257606E-01  0.12953155998E+00  0.15801400728E-01 0.  0.
         14    1    1    2    0    0 -0.18328809812E-01  0.43247862352E-02 -0.15649344200E-01  0.24485730927E-01  0.00000000000E+00 0. -1.
     999901    1    3    3    0    0 -0.19866616054E-01 -0.12455041612E+00  0.40461601806E-01  0.88991270910E+00  0.88000000000E+00 0.  1.
        -11    1    4    4    0    0  0.18372137324E-02  0.21901253319E-01 -0.87874311882E-03  0.22001671793E-01  0.51100000000E-03 0. -1.
         11    1    4    4    0    0  0.36358212134E-01  0.98324376565E-01 -0.23933514487E-01  0.10752988819E+00  0.51100000000E-03 0.  1.
</event>
<event>
 8    1  0.1093753E+005  0.1043930E+01  0.7957747E-01            NaN
         13   -1    0    0    0    0  0.00000000000E+00  0.00000000000E+00  0.74505805969E-08  0.10566000000E+00  0.10566000000E+00 0. -1.
     999900   -1    0    0    0    0 -0.00000000000E+00 -0.00000000000E+00 -0.74505805969E-08  0.93827000000E+00  0.93827000000E+00 0. -1.
     999902    2    1    2    0    0  0.22655281311E-01 -0.13746397059E-01  0.97824501101E-02  0.10156824951E+01  0.10152896184E+01 0.  0.
     999903    2    3    3    0    0 -0.73911587118E-01  0.73303118550E-01  0.63409262572E-01  0.12451549993E+00  0.25438263388E-01 0.  0.
         14    1    1    2    0    0 -0.22655281311E-01  0.13746397059E-01 -0.97824501101E-02  0.28247504908E-01  0.00000000000E+00 0.  1.
     999901    1    3    3    0    0  0.96566868429E-01 -0.87049515609E-01 -0.53626812461E-01  0.89116699516E+00  0.88000000000E+00 0. -1.
        -11    1    4    4    0    0 -0.32737588415E-01  0.42846925487E-01  0.20465552211E-01  0.57677627094E-01  0.51100000000E-03 0.  1.
         11    1    4    4    0    0 -0.41173998704E-01  0.30456193063E-01  0.42943710360E-01  0.66837872839E-01  0.51100000000E-03 0. -1.
</event>
<event>
 8    1  0.1093753E+005  0.1043930E+01  0.7957747E-01            NaN
         13   -1    0    0    0    0  0.00000000000E+00  0.00000000000E+00  0.74505805969E-08  0.10566000000E+00  0.10566000000E+00 0. -1.
     999900   -1    0    0    0    0 -0.00000000000E+00 -0.00000000000E+00 -0.74505805969E-08  0.93827000000E+00  0.93827000000E+00 0. -1.
     999902    2    1    2    0    0 -0.23213346437E-01 -0.56935245995E-02  0.16543645874E-02  0.10199714400E+01  0.10196900146E+01 0.  0.
     999903    2    3    3    0    0  0.55726347841E-01 -0.27750575889E-01 -0.11117421131E+00  0.12898980361E+00  0.20078442882E-01 0.  0.
         14    1    1    2    0    0  0.23213346437E-01  0.56935245995E-02 -0.16543645874E-02  0.23958560002E-01  0.00000000000E+00 0.  1.
     999901    1    3    3    0    0 -0.78939694278E-01  0.22057051289E-01  0.11282857590E+00  0.89098163639E+00  0.88000000000E+00 0. -1.
        -11    1    4    4    0    0  0.21517097296E-01 -0.43723768882E-03 -0.33266353157E-01  0.39624336287E-01  0.51100000000E-03 0.  1.
         11    1    4    4    0    0  0.34209250546E-01 -0.27313338200E-01 -0.77907858153E-01  0.89365467321E-01  0.51100000000E-03 0. -1.
</event>
<event>
 8    1  0.1093753E+005  0.1043930E+01  0.7957747E-01            NaN
         13   -1    0    0    0    0  0.00000000000E+00  0.00000000000E+00  0.74505805969E-08  0.10566000000E+00  0.10566000000E+00 0.  1.
     999900   -1    0    0    0    0 -0.00000000000E+00 -0.00000000000E+00 -0.74505805969E-08  0.93827000000E+00  0.93827000000E+00 0.  1.
     999902    2    1    2    0    0 -0.14066926440E-01 -0.69727089190E-03  0.19785220988E-01  0.10196437987E+01  0.10193545294E+01 0.  0.
     999903    2    3    3    0    0 -0.98921364160E-01  0.81747609065E-01 -0.20942784229E-01  0.13079274013E+00  0.14143294685E-01 0.  0.
         14    1    1    2    0    0  0.14066926440E-01  0.69727089190E-03 -0.19785220988E-01  0.24286201344E-01  0.00000000000E+00 0. -1.
     999901    1    3    3    0    0  0.84854437720E-01 -0.82444879957E-01  0.40728005217E-01  0.88885105852E+00  0.88000000000E+00 0.  1.
        -11    1    4    4    0    0 -0.90740120986E-01  0.78474688962E-01 -0.21771612135E-01  0.12192748082E+00  0.51100000000E-03 0. -1.
         11    1    4    4    0    0 -0.81812431737E-02  0.32729201031E-02  0.82882790590E-03  0.88652593062E-02  0.51100000000E-03 0.  1.
</event>
<event>
 8    1  0.1093753E+005  0.1043930E+01  0.7957747E-01            NaN
         13   -1    0    0    0    0  0.00000000000E+00  0.00000000000E+00  0.74505805969E-08  0.10566000000E+00  0.10566000000E+00 0.  1.
     999900   -1    0    0    0    0 -0.00000000000E+00 -0.00000000000E+00 -0.74505805969E-08  0.93827000000E+00  0.93827000000E+00 0. -1.
     999902    2    1    2    0    0 -0.11503970691E-01  0.16116031174E-01 -0.11677376428E-01  0.10209424181E+01  0.10206835906E+01 0.  0.
     999903    2    3    3    0    0 -0.88066352395E-01  0.98623470158E-01 -0.67501478445E-02  0.13375948691E+00  0.19072612597E-01 0.  0.
         14    1    1    2    0    0  0.11503970691E-01 -0.16116031174E-01  0.11677376428E-01  0.22987581923E-01  0.00000000000E+00 0.  1.
     999901    1    3    3    0    0  0.76562381704E-01 -0.82507438984E-01 -0.49272285832E-02  0.88718293117E+00  0.88000000000E+00 0. -1.
        -11    1    4    4    0    0 -0.25422888267E-01  0.20426257084E-01 -0.78896279159E-02  0.33556855871E-01  0.51100000000E-03 0. -1.
         11    1    4    4    0    0 -0.62643464128E-01  0.78197213074E-01  0.11394800714E-02  0.10020263103E+00  0.51100000000E-03 0.  1.
</event>
<event>
 8    1  0.1093753E+005  0.1043930E+01  0.7957747E-01            NaN
         13   -1    0    0    0    0  0.00000000000E+00  0.00000000000E+00  0.74505805969E-08  0.10566000000E+00  0.10566000000E+00 0. -1.
     999900   -1    0    0    0    0 -0.00000000000E+00 -0.00000000000E+00 -0.74505805969E-08  0.93827000000E+00  0.93827000000E+00 0. -1.
     999902    2    1    2    0    0  0.15712442805E-01  0.14606496496E-01 -0.11495528526E-01  0.10195911879E+01  0.10193006488E+01 0.  0.
     999903    2    3    3    0    0 -0.25230708516E-02 -0.50370554943E-01  0.11592695232E+00  0.12785633952E+00  0.19095198055E-01 0.  0.
         14    1    1    2    0    0 -0.15712442805E-01 -0.14606496496E-01  0.11495528526E-01  0.24338812109E-01  0.00000000000E+00 0. -1.
     999901    1    3    3    0    0  0.18235513656E-01  0.64977051439E-01 -0.12742248085E+00  0.89173484837E+00  0.88000000000E+00 0. -1.
        -11    1    4    4    0    0  0.65173645751E-02 -0.12720494256E-01  0.21772418188E-01  0.26049689631E-01  0.51100000000E-03 0. -1.
         11    1    4    4    0    0 -0.90404354267E-02 -0.37650060688E-01  0.94154534136E-01  0.10180664989E+00  0.51100000000E-03 0.  1.
</event>
<event>
 8    1  0.1093753E+005  0.1043930E+01  0.7957747E-01            NaN
         13   -1    0    0    0    0  0.00000000000E+00  0.00000000000E+00  0.74505805969E-08  0.10566000000E+00  0.10566000000E+00 0. -1.
     999900   -1    0    0    0    0 -0.00000000000E+00 -0.00000000000E+00 -0.74505805969E-08  0.93827000000E+00  0.93827000000E+00 0.  1.
     999902    2    1    2    0    0  0.12033211397E-01  0.13891910073E-01  0.15086551155E-01  0.10201521244E+01  0.10198749774E+01 0.  0.
     999903    2    3    3    0    0 -0.30150533354E-01 -0.49699558730E-01  0.11561231033E+00  0.13114775350E+00  0.21317273489E-01 0.  0.
         14    1    1    2    0    0 -0.12033211397E-01 -0.13891910073E-01 -0.15086551155E-01  0.23777875594E-01  0.00000000000E+00 0.  1.
     999901    1    3    3    0    0  0.42183744752E-01  0.63591468803E-01 -0.10052575918E+00  0.88900437090E+00  0.88000000000E+00 0.  1.
        -11    1    4    4    0    0  0.17864770150E-02 -0.50498995115E-02  0.38067890755E-02  0.65913389586E-02  0.51100000000E-03 0.  1.
         11    1    4    4    0    0 -0.31937010369E-01 -0.44649659218E-01  0.11180552126E+00  0.12455641454E+00  0.51100000000E-03 0. -1.
</event>
<event>
 8    1  0.1093753E+005  0.1043930E+01  0.7957747E-01            NaN
         13   -1    0    0    0    0  0.00000000000E+00  0.00000000000E+00  0.74505805969E-08  0.10566000000E+00  0.10566000000E+00 0. -1.
     999900   -1    0    0    0    0 -0.00000000000E+00 -0.00000000000E+00 -0.74505805969E-08  0.93827000000E+00  0.93827000000E+00 0.  1.
     999902    2    1    2    0    0 -0.70781971356E-02  0.10336130270E-01 -0.21752419560E-01  0.10188281232E+01  0.10185188463E+01 0.  0.
     999903    2    3    3    0    0 -0.12585918013E+00  0.27039751963E-01 -0.88646410195E-02  0.13059728170E+00  0.20134217632E-01 0.  0.
         14    1    1    2    0    0  0.70781971356E-02 -0.10336130270E-01  0.21752419560E-01  0.25101876829E-01  0.00000000000E+00 0. -1.
     999901    1    3    3    0    0  0.11878098299E+00 -0.16703621693E-01 -0.12887778540E-01  0.88823084147E+00  0.88000000000E+00 0.  1.
        -11    1    4    4    0    0 -0.29798008401E-01 -0.81352601782E-03  0.25832363371E-02  0.29925196076E-01  0.51100000000E-03 0.  1.
         11    1    4    4    0    0 -0.96061171725E-01  0.27853277981E-01 -0.11447877357E-01  0.10067208563E+00  0.51100000000E-03 0. -1.
</event>
<event>
 8    1  0.1093753E+005  0.1043930E+01  0.7957747E-01            NaN
         13   -1    0    0    0    0  0.00000000000E+00  0.00000000000E+00  0.74505805969E-08  0.10566000000E+00  0.10566000000E+00 0.  1.
     999900   -1    0    0    0    0 -0.00000000000E+00 -0.00000000000E+00 -0.74505805969E-08  0.93827000000E+00  0.93827000000E+00 0.  1.
     999902    2    1    2    0    0  0.17990138598E-01 -0.12024963931E-01 -0.88300032561E-02  0.10205587826E+01  0.10202911423E+01 0.  0.
     999903    2    3    3    0    0  0.61660764146E-01 -0.90249087803E-01  0.71821852166E-01  0.13234098339E+00  0.20219044260E-01 0.  0.
         14    1    1    2    0    0 -0.17990138598E-01  0.12024963931E-01  0.88300032561E-02  0.23371217380E-01  0.00000000000E+00 0.  1.
     999901    1    3    3    0    0 -0.43670625547E-01  0.78224123872E-01 -0.80651855423E-01  0.88821779923E+00  0.88000000000E+00 0.  1.
        -11    1    4    4    0    0  0.36144244383E-01 -0.62914049523E-01  0.56346411678E-01  0.91868184152E-01  0.51100000000E-03 0.  1.
         11    1    4    4    0    0  0.25516519763E-01 -0.27335038280E-01  0.15475440489E-01  0.40472799235E-01  0.51100000000E-03 0. -1.
</event>
<event>
 8    1  0.1093753E+005  0.1043930E+01  0.7957747E-01            NaN
         13   -1    0    0    0    0  0.00000000000E+00  0.00000000000E+00  0.74505805969E-08  0.10566000000E+00  0.10566000000E+00 0.  1.
     999900   -1    0    0    0    0 -0.00000000000E+00 -0.00000000000E+00 -0.74505805969E-08  0.93827000000E+00  0.93827000000E+00 0. -1.
     999902    2    1    2    0    0 -0.18144164876E-01 -0.14962474710E-01  0.61125360971E-02  0.10196308340E+01  0.10193412521E+01 0.  0.
     999903    2    3    3    0    0 -0.65817665927E-01 -0.11212811560E+00  0.18886182468E-01  0.13290816573E+00  0.20080168659E-01 0.  0.
         14    1    1    2    0    0  0.18144164876E-01  0.14962474710E-01 -0.61125360971E-02  0.24299165953E-01  0.00000000000E+00 0. -1.
     999901    1    3    3    0    0  0.47673501051E-01  0.97165640887E-01 -0.12773646371E-01  0.88672266832E+00  0.88000000000E+00 0.  1.
        -11    1    4    4    0    0 -0.48656749065E-01 -0.64364274276E-01  0.88718871654E-02  0.81173952322E-01  0.51100000000E-03 0. -1.
         11    1    4    4    0    0 -0.17160916861E-01 -0.47763841321E-01  0.10014295302E-01  0.51734213405E-01  0.51100000000E-03 0.  1.
</event>
<event>
 8    1  0.1093753E+005  0.1043930E+01  0.7957747E-01            NaN
         13   -1    0    0    0    0  0.00000000000E+00  0.00000000000E+00  0.74505805969E-08  0.10566000000E+00  0.10566000000E+00 0.  1.
     999900   -1    0    0    0    0 -0.00000000000E+00 -0.00000000000E+00 -0.74505805969E-08  0.93827000000E+00  0.93827000000E+00 0.  1.
     999902    2    1    2    0    0 -0.19752333931E-02  0.66648653738E-02  0.22238395212E-01  0.10206304678E+01  0.10203644857E+01 0.  0.
     999903    2    3    3    0    0 -0.81454969715E-01  0.46924325647E-01  0.92028797511E-01  0.13338272742E+00  0.22019263679E-01 0.  0.
         14    1    1    2    0    0  0.19752333931E-02 -0.66648653738E-02 -0.22238395212E-01  0.23299532163E-01  0.00000000000E+00 0. -1.
     999901    1    3    3    0    0  0.79479736322E-01 -0.40259460273E-01 -0.69790402299E-01  0.88724774042E+00  0.88000000000E+00 0.  1.
        -11    1    4    4    0    0 -0.22442556349E-01  0.19129400869E-01  0.17321466380E-01  0.34203751719E-01  0.51100000000E-03 0.  1.
         11    1    4    4    0    0 -0.59012413366E-01  0.27794924778E-01  0.74707331131E-01  0.99178975698E-01  0.51100000000E-03 0. -1.
</event>
<event>
 8    1  0.1093753E+005  0.1043930E+01  0.7957747E-01            NaN
         13   -1    0    0    0    0  0.00000000000E+00  0.00000000000E+00  0.74505805969E-08  0.10566000000E+00  0.10566000000E+00 0.  1.
     999900   -1    0    0    0    0 -0.00000000000E+00 -0.00000000000E+00 -0.74505805969E-08  0.93827000000E+00  0.93827000000E+00 0. -1.
     999902    2    1    2    0    0 -0.23646189782E-01 -0.35884360378E-02 -0.14633535993E-02  0.10199683521E+01  0.10196868533E+01 0.  0.
     999903    2    3    3    0    0  0.88702808861E-01  0.49930019042E-02 -0.90255264676E-01  0.12835187515E+00  0.20858396011E-01 0.  0.
         14    1    1    2    0    0  0.23646189782E-01  0.35884360378E-02  0.14633535993E-02  0.23961647860E-01  0.00000000000E+00 0.  1.
     999901    1    3    3    0    0 -0.11234899864E+00 -0.85814379419E-02  0.88791911077E-01  0.89161647699E+00  0.88000000000E+00 0.  1.
        -11    1    4    4    0    0  0.21592501153E-01  0.97831414066E-04 -0.35696866715E-01  0.41722572923E-01  0.51100000000E-03 0.  1.
         11    1    4    4    0    0  0.67110307707E-01  0.48951704901E-02 -0.54558397961E-01  0.86629302224E-01  0.51100000000E-03 0. -1.
</event>
<event>
 8    1  0.1093753E+005  0.1043930E+01  0.7957747E-01            NaN
         13   -1    0    0    0    0  0.00000000000E+00  0.00000000000E+00  0.74505805969E-08  0.10566000000E+00  0.10566000000E+00 0. -1.
     999900   -1    0    0    0    0 -0.00000000000E+00 -0.00000000000E+00 -0.74505805969E-08  0.93827000000E+00  0.93827000000E+00 0.  1.
     999902    2    1    2    0    0 -0.18500864280E-01  0.17287373962E-01  0.68695610701E-02  0.10176940295E+01  0.10173557940E+01 0.  0.
     999903    2    3    3    0    0  0.21818041142E-01  0.10629286670E+00  0.68881874269E-01  0.13011692365E+00  0.20285482224E-01 0.  0.
         14    1    1    2    0    0  0.18500864280E-01 -0.17287373962E-01 -0.68695610701E-02  0.26235970478E-01  0.00000000000E+00 0. -1.
     999901    1    3    3    0    0 -0.40318905423E-01 -0.89005492733E-01 -0.62012313199E-01  0.88757710587E+00  0.88000000000E+00 0.  1.
        -11    1    4    4    0    0  0.24311456985E-01  0.80901252329E-01  0.57408604480E-01  0.10213749830E+00  0.51100000000E-03 0.  1.
         11    1    4    4    0    0 -0.24934158423E-02  0.25391614366E-01  0.11473269789E-01  0.27979425358E-01  0.51100000000E-03 0. -1.
</event>
<event>
 8    1  0.1093753E+005  0.1043930E+01  0.7957747E-01            NaN
         13   -1    0    0    0    0  0.00000000000E+00  0.00000000000E+00  0.74505805969E-08  0.10566000000E+00  0.10566000000E+00 0.  1.
     999900   -1    0    0    0    0 -0.00000000000E+00 -0.00000000000E+00 -0.74505805969E-08  0.93827000000E+00  0.93827000000E+00 0.  1.
     999902    2    1    2    0    0 -0.10819225517E-01 -0.12458587632E-01  0.17176590624E-01  0.10201117861E+01  0.10198336869E+01 0.  0.
     999903    2    3    3    0    0 -0.15865705901E-01  0.12516329917E+00 -0.16419691330E-01  0.12876787896E+00  0.19849138632E-01 0.  0.
         14    1    1    2    0    0  0.10819225517E-01  0.12458587632E-01 -0.17176590624E-01  0.23818213871E-01  0.00000000000E+00 0. -1.
     999901    1    3    3    0    0  0.50464803841E-02 -0.13762188680E+00  0.33596281954E-01  0.89134390717E+00  0.88000000000E+00 0. -1.
        -11    1    4    4    0    0  0.38388797996E-02  0.38853942985E-01 -0.77976579430E-02  0.39817464434E-01  0.51100000000E-03 0. -1.
         11    1    4    4    0    0 -0.19704585700E-01  0.86309356187E-01 -0.86220333873E-02  0.88950414522E-01  0.51100000000E-03 0.  1.
</event>
<event>
 8    1  0.1093753E+005  0.1043930E+01  0.7957747E-01            NaN
         13   -1    0    0    0    0  0.00000000000E+00  0.00000000000E+00  0.74505805969E-08  0.10566000000E+00  0.10566000000E+00 0.  1.
     999900   -1    0    0    0    0 -0.00000000000E+00 -0.00000000000E+00 -0.74505805969E-08  0.93827000000E+00  0.93827000000E+00 0.  1.
     999902    2    1    2    0    0 -0.13798481546E-01 -0.16414095293E-01  0.16357470019E-02  0.10224242732E+01  0.10221980719E+01 0.  0.
     999903    2    3    3    0    0 -0.43018893398E-01  0.50677410293E-01  0.11328652496E+00  0.13235629893E+00  0.16295030719E-01 0.  0.
         14    1    1    2    0    0  0.13798481546E-01  0.16414095293E-01 -0.16357470019E-02  0.21505726808E-01  0.00000000000E+00 0.  1.
     999901    1    3    3    0    0  0.29220411852E-01 -0.67091505587E-01 -0.11165077796E+00  0.89006797426E+00  0.88000000000E+00 0.  1.
        -11    1    4    4    0    0 -0.15926169186E-03  0.54409258655E-02  0.15138299697E-01  0.16095287425E-01  0.51100000000E-03 0. -1.
         11    1    4    4    0    0 -0.42859631706E-01  0.45236484428E-01  0.98148225260E-01  0.11626101150E+00  0.51100000000E-03 0.  1.
</event>
<event>
 8    1  0.1093753E+005  0.1043930E+01  0.7957747E-01            NaN
         13   -1    0    0    0    0  0.00000000000E+00  0.00000000000E+00  0.74505805969E-08  0.10566000000E+00  0.10566000000E+00 0.  1.
     999900   -1    0    0    0    0 -0.00000000000E+00 -0.00000000000E+00 -0.74505805969E-08  0.93827000000E+00  0.93827000000E+00 0.  1.
     999902    2    1    2    0    0 -0.86518884159E-03  0.13325942084E-01  0.20903016810E-01  0.10191254561E+01  0.10188235519E+01 0.  0.
     999903    2    3    3    0    0 -0.81706339940E-01 -0.93710831895E-01 -0.22747898053E-01  0.12789172414E+00  0.19523837646E-01 0.  0.
         14    1    1    2    0    0  0.86518884159E-03 -0.13325942084E-01 -0.20903016810E-01  0.24804543857E-01  0.00000000000E+00 0. -1.
     999901    1    3    3    0    0  0.80841151098E-01  0.10703677398E+00  0.43650914864E-01  0.89123373200E+00  0.88000000000E+00 0.  1.
        -11    1    4    4    0    0 -0.52431288105E-01 -0.64340377708E-01 -0.24002735042E-01  0.86400906167E-01  0.51100000000E-03 0.  1.
         11    1    4    4    0    0 -0.29275051835E-01 -0.29370454187E-01  0.12548369881E-02  0.41490817972E-01  0.51100000000E-03 0. -1.
</event>
<event>
 8    1  0.1093753E+005  0.1043930E+01  0.7957747E-01            NaN
         13   -1    0    0    0    0  0.00000000000E+00  0.00000000000E+00  0.74505805969E-08  0.10566000000E+00  0.10566000000E+00 0.  1.
     999900   -1    0    0    0    0 -0.00000000000E+00 -0.00000000000E+00 -0.74505805969E-08  0.93827000000E+00  0.93827000000E+00 0. -1.
     999902    2    1    2    0    0  0.21303835162E-01  0.79980156152E-02 -0.82238771592E-02  0.10197338474E+01  0.10194467449E+01 0.  0.
     999903    2    3    3    0    0  0.66523310018E-01  0.10298508706E+00 -0.46357614272E-01  0.13264787265E+00  0.20375249284E-01 0.  0.
         14    1    1    2    0    0 -0.21303835162E-01 -0.79980156152E-02  0.82238771592E-02  0.24196152627E-01  0.00000000000E+00 0.  1.
     999901    1    3    3    0    0 -0.45219474856E-01 -0.94987071450E-01  0.38133737113E-01  0.88708597473E+00  0.88000000000E+00 0.  1.
        -11    1    4    4    0    0  0.45410507779E-01  0.84653629322E-01 -0.32316965633E-01  0.10135580182E+00  0.51100000000E-03 0. -1.
         11    1    4    4    0    0  0.21112802240E-01  0.18331457743E-01 -0.14040648639E-01  0.31292070826E-01  0.51100000000E-03 0.  1.
</event>
<event>
 8    1  0.1093753E+005  0.1043930E+01  0.7957747E-01            NaN
         13   -1    0    0    0    0  0.00000000000E+00  0.00000000000E+00  0.74505805969E-08  0.10566000000E+00  0.10566000000E+00 0. -1.
     999900   -1    0    0    0    0 -0.00000000000E+00 -0.00000000000E+00 -0.74505805969E-08  0.93827000000E+00  0.93827000000E+00 0. -1.
     999902    2    1    2    0    0  0.19043776579E-01  0.79817144954E-02 -0.11839727501E-01  0.10201276400E+01  0.10198499152E+01 0.  0.
     999903    2    3    3    0    0 -0.12267166499E+00  0.32199959350E-01 -0.34473166600E-02  0.12842128572E+00  0.19873798312E-01 0.  0.
         14    1    1    2    0    0 -0.19043776579E-01 -0.79817144954E-02  0.11839727501E-01  0.23802359967E-01  0.00000000000E+00 0. -1.
     999901    1    3    3    0    0  0.14171544157E+00 -0.24218244855E-01 -0.83924108411E-02  0.89170635431E+00  0.88000000000E+00 0. -1.
        -11    1    4    4    0    0 -0.53640007091E-01  0.41056706691E-02  0.21997681465E-03  0.53799780698E-01  0.51100000000E-03 0. -1.
         11    1    4    4    0    0 -0.69031657902E-01  0.28094288681E-01 -0.36672934746E-02  0.74621505021E-01  0.51100000000E-03 0.  1.
</event>
<event>
 8    1  0.1093753E+005  0.1043930E+01  0.7957747E-01            NaN
         13   -1    0    0    0    0  0.00000000000E+00  0.00000000000E+00  0.74505805969E-08  0.10566000000E+00  0.10566000000E+00 0.  1.
     999900   -1    0    0    0    0 -0.00000000000E+00 -0.00000000000E+00 -0.74505805969E-08  0.93827000000E+00  0.93827000000E+00 0.  1.
     999902    2    1    2    0    0  0.82923483386E-02  0.23060125690E-01  0.43841546035E-02  0.10190351562E+01  0.10187310225E+01 0.  0.
     999903    2    3    3    0    0  0.66725514691E-01  0.87812825120E-01 -0.69471564585E-01  0.13164459150E+00  0.18455720459E-01 0.  0.
         14    1    1    2    0    0 -0.82923483386E-02 -0.23060125690E-01 -0.43841546035E-02  0.24894843832E-01  0.00000000000E+00 0.  1.
     999901    1    3    3    0    0 -0.58433166352E-01 -0.64752699430E-01  0.73855719189E-01  0.88739056467E+00  0.88000000000E+00 0. -1.
        -11    1    4    4    0    0  0.63652101987E-02  0.63778061210E-02 -0.50188383222E-03  0.90390995222E-02  0.51100000000E-03 0.  1.
         11    1    4    4    0    0  0.60360304492E-01  0.81435018999E-01 -0.68969680753E-01  0.12260549197E+00  0.51100000000E-03 0. -1.
</event>
<event>
 8    1  0.1093753E+005  0.1043930E+01  0.7957747E-01            NaN
         13   -1    0    0    0    0  0.00000000000E+00  0.00000000000E+00  0.74505805969E-08  0.10566000000E+00  0.10566000000E+00 0. -1.
     999900   -1    0    0    0    0 -0.00000000000E+00 -0.00000000000E+00 -0.74505805969E-08  0.93827000000E+00  0.93827000000E+00 0. -1.
     999902    2    1    2    0    0 -0.18685672590E-02 -0.60398350605E-02 -0.22606249449E-01  0.10204563197E+01  0.10201863001E+01 0.  0.
     999903    2    3    3    0    0  0.36143165952E-01  0.32473958052E-01  0.11656148340E+00  0.12787810916E+00  0.20133181418E-01 0.  0.
         14    1    1    2    0    0  0.18685672590E-02  0.60398350605E-02  0.22606249449E-01  0.23473680267E-01  0.00000000000E+00 0. -1.
     999901    1    3    3    0    0 -0.38011733211E-01 -0.38513793112E-01 -0.13916773285E+00  0.89257821057E+00  0.88000000000E+00 0. -1.
        -11    1    4    4    0    0  0.22884154251E-01  0.10405173401E-01  0.73756309810E-01  0.77924364014E-01  0.51100000000E-03 0. -1.
         11    1    4    4    0    0  0.13259011702E-01  0.22068784651E-01  0.42805173589E-01  0.49953745147E-01  0.51100000000E-03 0.  1.
</event>
<event>
 7    1  0.1093753E+005  0.1043930E+01  0.7957747E-01            NaN
         13   -1    0    0    0    0  0.00000000000E+00  0.00000000000E+00  0.74505805969E-08  0.10566000000E+00  0.10566000000E+00 0.  1.
     999900   -1    0    0    0    0 -0.00000000000E+00 -0.00000000000E+00 -0.74505805969E-08  0.93827000000E+00  0.93827000000E+00 0. -1.
     999903    2    1    2    0    0  0.10194950037E+00 -0.21181069198E-01  0.48946750886E-01  0.11661081412E+00  0.18972591512E-01 0.  0.
         14    1    1    2    0    0 -0.23868712851E-01 -0.47469156922E-02 -0.35917393945E-01  0.43385571905E-01  0.00000000000E+00 0. -1.
     999901    1    1    2    0    0 -0.78080787518E-01  0.25927984890E-01 -0.13029356941E-01  0.88393361398E+00  0.88000000000E+00 0. -1.
        -11    1    3    3    0    0  0.18016860465E-01 -0.36051674601E-03  0.18039910788E-02  0.18117746498E-01  0.51100000000E-03 0. -1.
         11    1    3    3    0    0  0.83932639903E-01 -0.20820552452E-01  0.47142759807E-01  0.98493067618E-01  0.51100000000E-03 0.  1.
</event>
<event>
 7    1  0.1093753E+005  0.1043930E+01  0.7957747E-01            NaN
         13   -1    0    0    0    0  0.00000000000E+00  0.00000000000E+00  0.74505805969E-08  0.10566000000E+00  0.10566000000E+00 0. -1.
     999900   -1    0    0    0    0 -0.00000000000E+00 -0.00000000000E+00 -0.74505805969E-08  0.93827000000E+00  0.93827000000E+00 0.  1.
     999903    2    1    2    0    0  0.48885296538E-01  0.19510935442E-01 -0.77289165173E-01  0.95504703805E-01  0.19418665670E-01 0.  0.
         14    1    1    2    0    0  0.17709859652E-03 -0.15012297479E-01 -0.55145809410E-01  0.57152959110E-01  0.00000000000E+00 0.  1.
     999901    1    1    2    0    0 -0.49062395135E-01 -0.44986379628E-02  0.13243497458E+00  0.89127233708E+00  0.88000000000E+00 0. -1.
        -11    1    3    3    0    0  0.27043682394E-01  0.30225924305E-02 -0.27519578760E-01  0.38705105071E-01  0.51100000000E-03 0.  1.
         11    1    3    3    0    0  0.21841614144E-01  0.16488343011E-01 -0.49769586413E-01  0.56799598734E-01  0.51100000000E-03 0. -1.
</event>
<event>
 8    1  0.1093753E+005  0.1043930E+01  0.7957747E-01            NaN
         13   -1    0    0    0    0  0.00000000000E+00  0.00000000000E+00  0.74505805969E-08  0.10566000000E+00  0.10566000000E+00 0. -1.
     999900   -1    0    0    0    0 -0.00000000000E+00 -0.00000000000E+00 -0.74505805969E-08  0.93827000000E+00  0.93827000000E+00 0.  1.
     999902    2    1    2    0    0 -0.17311963433E-01 -0.67901478291E-02 -0.14865920214E-01  0.10201223170E+01  0.10198444665E+01 0.  0.
     999903    2    3    3    0    0  0.95775655427E-01  0.76262619473E-01  0.30768988568E-01  0.12783922483E+00  0.20178539251E-01 0.  0.
         14    1    1    2    0    0  0.17311963433E-01  0.67901478291E-02  0.14865920214E-01  0.23807682988E-01  0.00000000000E+00 0.  1.
     999901    1    3    3    0    0 -0.11308761886E+00 -0.83052767302E-01 -0.45634908782E-01  0.89228309218E+00  0.88000000000E+00 0.  1.
        -11    1    4    4    0    0  0.53178892796E-01  0.29558573858E-01  0.13850439089E-01  0.62400318200E-01  0.51100000000E-03 0.  1.
         11    1    4    4    0    0  0.42596762631E-01  0.46704045614E-01  0.16918549479E-01  0.65438906629E-01  0.51100000000E-03 0. -1.
</event>
<event>
 8    1  0.1093753E+005  0.1043930E+01  0.7957747E-01            NaN
         13   -1    0    0    0    0  0.00000000000E+00  0.00000000000E+00  0.74505805969E-08  0.10566000000E+00  0.10566000000E+00 0. -1.
     999900   -1    0    0    0    0 -0.00000000000E+00 -0.00000000000E+00 -0.74505805969E-08  0.93827000000E+00  0.93827000000E+00 0.  1.
     999902    2    1    2    0    0 -0.12507153366E-01  0.22134390292E-01  0.23956609550E-03  0.10185052579E+01  0.10181878721E+01 0.  0.
     999903    2    3    3    0    0  0.84956227158E-01 -0.84071674595E-01  0.34961389853E-01  0.12610151306E+00  0.19841517414E-01 0.  0.
         14    1    1    2    0    0  0.12507153366E-01 -0.22134390292E-01 -0.23956609550E-03  0.25424742100E-01  0.00000000000E+00 0. -1.
     999901    1    3    3    0    0 -0.97463380523E-01  0.10620606489E+00 -0.34721823758E-01  0.89240374484E+00  0.88000000000E+00 0.  1.
        -11    1    4    4    0    0  0.26401110428E-01 -0.39377584881E-01  0.15951844622E-01  0.50023347457E-01  0.51100000000E-03 0. -1.
         11    1    4    4    0    0  0.58555116730E-01 -0.44694089714E-01  0.19009545231E-01  0.76078165603E-01  0.51100000000E-03 0.  1.
</event>
<event>
 8    1  0.1093753E+005  0.1043930E+01  0.7957747E-01            NaN
         13   -1    0    0    0    0  0.00000000000E+00  0.00000000000E+00  0.74505805969E-08  0.10566000000E+00  0.10566000000E+00 0. -1.
     999900   -1    0    0    0    0 -0.00000000000E+00 -0.00000000000E+00 -0.74505805969E-08  0.93827000000E+00  0.93827000000E+00 0.  1.
     999902    2    1    2    0    0  0.14467580896E-01 -0.39343702046E-02 -0.19450342303E-01  0.10193717838E+01  0.10190759185E+01 0.  0.
     999903    2    3    3    0    0  0.10812519654E+00  0.50149389806E-01 -0.53497402982E-01  0.13209730296E+00  0.19537295073E-01 0.  0.
         14    1    1    2    0    0 -0.14467580896E-01  0.39343702046E-02  0.19450342303E-01  0.24558216173E-01  0.00000000000E+00 0. -1.
     999901    1    3    3    0    0 -0.93657615639E-01 -0.54083760010E-01  0.34047060679E-01  0.88727448087E+00  0.88000000000E+00 0.  1.
        -11    1    4    4    0    0  0.47468180790E-01  0.18751950174E-01 -0.33021331252E-01  0.60790897851E-01  0.51100000000E-03 0. -1.
         11    1    4    4    0    0  0.60657015745E-01  0.31397439631E-01 -0.20476071729E-01  0.71306405105E-01  0.51100000000E-03 0.  1.
</event>
<event>
 8    1  0.1093753E+005  0.1043930E+01  0.7957747E-01            NaN
         13   -1    0    0    0    0  0.00000000000E+00  0.00000000000E+00  0.74505805969E-08  0.10566000000E+00  0.10566000000E+00 0. -1.
     999900   -1    0    0    0    0 -0.00000000000E+00 -0.00000000000E+00 -0.74505805969E-08  0.93827000000E+00  0.93827000000E+00 0. -1.
     999902    2    1    2    0    0  0.20739228179E-01  0.11438711106E-02  0.14679938818E-01  0.10184952869E+01  0.10181776489E+01 0.  0.
     999903    2    3    3    0    0 -0.29051369558E-01  0.94049481974E-01 -0.77584128833E-01  0.12741548445E+00  0.22937338540E-01 0.  0.
         14    1    1    2    0    0 -0.20739228179E-01 -0.11438711106E-02 -0.14679938818E-01  0.25434713096E-01  0.00000000000E+00 0.  1.
     999901    1    3    3    0    0  0.49790597736E-01 -0.92905610864E-01  0.92264067651E-01  0.89107980245E+00  0.88000000000E+00 0.  1.
        -11    1    4    4    0    0 -0.20585307974E-01  0.29637437951E-01 -0.26672982007E-01  0.44875847879E-01  0.51100000000E-03 0. -1.
         11    1    4    4    0    0 -0.84660615832E-02  0.64412044023E-01 -0.50911146826E-01  0.82539636576E-01  0.51100000000E-03 0.  1.
</event>
<event>
 8    1  0.1093753E+005  0.1043930E+01  0.7957747E-01            NaN
         13   -1    0    0    0    0  0.00000000000E+00  0.00000000000E+00  0.74505805969E-08  0.10566000000E+00  0.10566000000E+00 0.  1.
     999900   -1    0    0    0    0 -0.00000000000E+00 -0.00000000000E+00 -0.74505805969E-08  0.93827000000E+00  0.93827000000E+00 0.  1.
     999902    2    1    2    0    0  0.39191825907E-02 -0.22337588023E-01  0.69756263826E-02  0.10202026488E+01  0.10199266922E+01 0.  0.
     999903    2    3    3    0    0  0.12083481874E+00 -0.45337946734E-01  0.19777406929E-01  0.13207981493E+00  0.19933611129E-01 0.  0.
         14    1    1    2    0    0 -0.39191825907E-02  0.22337588023E-01 -0.69756263826E-02  0.23727351185E-01  0.00000000000E+00 0. -1.
     999901    1    3    3    0    0 -0.11691563615E+00  0.23000358712E-01 -0.12801780546E-01  0.88812283388E+00  0.88000000000E+00 0.  1.
        -11    1    4    4    0    0  0.81634594950E-01 -0.32729376725E-01  0.22574880723E-01  0.90803664872E-01  0.51100000000E-03 0. -1.
         11    1    4    4    0    0  0.39200223794E-01 -0.12608570009E-01 -0.27974737939E-02  0.41276150060E-01  0.51100000000E-03 0.  1.
</event>
<event>
 8    1  0.1093753E+005  0.1043930E+01  0.7957747E-01            NaN
         13   -1    0    0    0    0  0.00000000000E+00  0.00000000000E+00  0.74505805969E-08  0.10566000000E+00  0.10566000000E+00 0.  1.
     999900   -1    0    0    0    0 -0.00000000000E+00 -0.00000000000E+00 -0.74505805969E-08  0.93827000000E+00  0.93827000000E+00 0.  1.
     999902    2    1    2    0    0  0.41250244350E-02  0.17891136183E-01  0.16783456720E-01  0.10190544498E+01  0.10187507932E+01 0.  0.
     999903    2    3    3    0    0  0.14940566893E-01 -0.10021106881E+00  0.77095502059E-01  0.12905296122E+00  0.21106196024E-01 0.  0.
         14    1    1    2    0    0 -0.41250244350E-02 -0.17891136183E-01 -0.16783456720E-01  0.24875550245E-01  0.00000000000E+00 0. -1.
     999901    1    3    3    0    0 -0.10815542458E-01  0.11810220499E+00 -0.60312045339E-01  0.89000148854E+00  0.88000000000E+00 0.  1.
        -11    1    4    4    0    0 -0.46681226045E-02 -0.10501462305E-01  0.64069196997E-02  0.13167453065E-01  0.51100000000E-03 0.  1.
         11    1    4    4    0    0  0.19608689497E-01 -0.89709606505E-01  0.70688582360E-01  0.11588550815E+00  0.51100000000E-03 0. -1.
</event>
<event>
 8    1  0.1093753E+005  0.1043930E+01  0.7957747E-01            NaN
         13   -1    0    0    0    0  0.00000000000E+00  0.00000000000E+00  0.74505805969E-08  0.10566000000E+00  0.10566000000E+00 0. -1.
     999900   -1    0    0    0    0 -0.00000000000E+00 -0.00000000000E+00 -0.74505805969E-08  0.93827000000E+00  0.93827000000E+00 0. -1.
     999902    2    1    2    0    0  0.13593386272E-02 -0.18320449397E-01  0.18312722477E-01  0.10179907928E+01  0.10176602634E+01 0.  0.
     999903    2    3    3    0    0  0.88305890210E-01  0.50238427289E-01  0.77268775261E-01  0.12909493915E+00  0.19318640279E-01 0.  0.
         14    1    1    2    0    0 -0.13593386272E-02  0.18320449397E-01 -0.18312722477E-01  0.25939207238E-01  0.00000000000E+00 0.  1.
     999901    1    3    3    0    0 -0.86946551582E-01 -0.68558876686E-01 -0.58956052785E-01  0.88889585361E+00  0.88000000000E+00 0. -1.
        -11    1    4    4    0    0  0.39870166869E-01  0.33091581073E-01  0.42970874778E-01  0.67315972431E-01  0.51100000000E-03 0. -1.
         11    1    4    4    0    0  0.48435723340E-01  0.17146846216E-01  0.34297900483E-01  0.61778966722E-01  0.51100000000E-03 0.  1.
</event>
<event>
 8    1  0.1093753E+005  0.1043930E+01  0.7957747E-01            NaN
         13   -1    0    0    0    0  0.00000000000E+00  0.00000000000E+00  0.74505805969E-08  0.10566000000E+00  0.10566000000E+00 0.  1.
     999900   -1    0    0    0    0 -0.00000000000E+00 -0.00000000000E+00 -0.74505805969E-08  0.93827000000E+00  0.93827000000E+00 0.  1.
     999902    2    1    2    0    0  0.16351025746E-01 -0.51888604811E-02 -0.15814368040E-01  0.10205981644E+01  0.10203314357E+01 0.  0.
     999903    2    3    3    0    0  0.65994314497E-01 -0.64419203020E-01 -0.95181937972E-01  0.13365290073E+00  0.17274643049E-01 0.  0.
         14    1    1    2    0    0 -0.16351025746E-01  0.51888604811E-02  0.15814368040E-01  0.23331835602E-01  0.00000000000E+00 0.  1.
     999901    1    3    3    0    0 -0.49643288751E-01  0.59230342539E-01  0.79367569932E-01  0.88694526367E+00  0.88000000000E+00 0. -1.
        -11    1    4    4    0    0  0.16207315276E-01 -0.27131431242E-01 -0.30952981955E-01  0.44239573265E-01  0.51100000000E-03 0.  1.
         11    1    4    4    0    0  0.49786999221E-01 -0.37287771778E-01 -0.64228956017E-01  0.89413327460E-01  0.51100000000E-03 0. -1.
</event>
<event>
 8    1  0.1093753E+005  0.1043930E+01  0.7957747E-01            NaN
         13   -1    0    0    0    0  0.00000000000E+00  0.00000000000E+00  0.74505805969E-08  0.10566000000E+00  0.10566000000E+00 0.  1.
     999900   -1    0    0    0    0 -0.00000000000E+00 -0.00000000000E+00 -0.74505805969E-08  0.93827000000E+00  0.93827000000E+00 0.  1.
     999902    2    1    2    0    0 -0.60044114399E-02  0.35813714934E-02 -0.22202343370E-01  0.10206529033E+01  0.10203874391E+01 0.  0.
     999903    2    3    3    0    0 -0.10825215030E-01  0.74887024070E-01 -0.10808706425E+00  0.13358812468E+00  0.20921805402E-01 0.  0.
         14    1    1    2    0    0  0.60044114399E-02 -0.35813714934E-02  0.22202343370E-01  0.23277096676E-01  0.00000000000E+00 0.  1.
     999901    1    3    3    0    0  0.48208035904E-02 -0.71305652577E-01  0.85884720882E-01  0.88706477865E+00  0.88000000000E+00 0.  1.
        -11    1    4    4    0    0 -0.16268693254E-01  0.42618030989E-01 -0.67042145126E-01  0.81091783120E-01  0.51100000000E-03 0.  1.
         11    1    4    4    0    0  0.54434782236E-02  0.32268993082E-01 -0.41044919127E-01  0.52496341556E-01  0.51100000000E-03 0. -1.
</event>
<event>
 8    1  0.1093753E+005  0.1043930E+01  0.7957747E-01            NaN
         13   -1    0    0    0    0  0.00000000000E+00  0.00000000000E+00  0.74505805969E-08  0.10566000000E+00  0.10566000000E+00 0.  1.
     999900   -1    0    0    0    0 -0.00000000000E+00 -0.00000000000E+00 -0.74505805969E-08  0.93827000000E+00  0.93827000000E+00 0. -1.
     999902    2    1    2    0    0  0.48578745467E-02  0.19080134578E-01 -0.12501702079E-01  0.10206074136E+01  0.10203408988E+01 0.  0.
     999903    2    3    3    0    0 -0.90804355716E-01  0.93831215639E-01 -0.46840976116E-02  0.13223806399E+00  0.20377358822E-01 0.  0.
         14    1    1    2    0    0 -0.48578745467E-02 -0.19080134578E-01  0.12501702079E-01  0.23322586381E-01  0.00000000000E+00 0.  1.
     999901    1    3    3    0    0  0.95662230263E-01 -0.74751081061E-01 -0.78176044673E-02  0.88836934963E+00  0.88000000000E+00 0. -1.
        -11    1    4    4    0    0 -0.31326888748E-01  0.32217160188E-01  0.80560726855E-02  0.45656114566E-01  0.51100000000E-03 0. -1.
         11    1    4    4    0    0 -0.59477466968E-01  0.61614055451E-01 -0.12740170297E-01  0.86581949425E-01  0.51100000000E-03 0.  1.
</event>
<event>
 8    1  0.1093753E+005  0.1043930E+01  0.7957747E-01            NaN
         13   -1    0    0    0    0  0.00000000000E+00  0.00000000000E+00  0.74505805969E-08  0.10566000000E+00  0.10566000000E+00 0.  1.
     999900   -1    0    0    0    0 -0.00000000000E+00 -0.00000000000E+00 -0.74505805969E-08  0.93827000000E+00  0.93827000000E+00 0. -1.
     999902    2    1    2    0    0  0.22564165595E-01  0.41626511078E-02 -0.32526403220E-02  0.10207556844E+01  0.10204925862E+01 0.  0.
     999903    2    3    3    0    0 -0.10744269475E+00  0.60535606954E-02  0.67175283097E-01  0.12841861153E+00  0.19956023548E-01 0.  0.
         14    1    1    2    0    0 -0.22564165595E-01 -0.41626511078E-02  0.32526403220E-02  0.23174315573E-01  0.00000000000E+00 0.  1.
     999901    1    3    3    0    0  0.13000686034E+00 -0.18909095876E-02 -0.70427923419E-01  0.89233707290E+00  0.88000000000E+00 0.  1.
        -11    1    4    4    0    0 -0.30091957447E-01 -0.24839143432E-02  0.28468590828E-01  0.41502018242E-01  0.51100000000E-03 0. -1.
         11    1    4    4    0    0 -0.77350737299E-01  0.85374750386E-02  0.38706692269E-01  0.86916593285E-01  0.51100000000E-03 0.  1.
</event>
<event>
 8    1  0.1093753E+005  0.1043930E+01  0.7957747E-01            NaN
         13   -1    0    0    0    0  0.00000000000E+00  0.00000000000E+00  0.74505805969E-08  0.10566000000E+00  0.10566000000E+00 0. -1.
     999900   -1    0    0    0    0 -0.00000000000E+00 -0.00000000000E+00 -0.74505805969E-08  0.93827000000E+00  0.93827000000E+00 0.  1.
     999902    2    1    2    0    0  0.13070787006E-01 -0.44064770537E-02 -0.18945744615E-01  0.10204949034E+01  0.10202257810E+01 0.  0.
     999903    2    3    3    0    0 -0.11172835274E+00 -0.89465403908E-02  0.59059598326E-01  0.12826159817E+00  0.19993399418E-01 0.  0.
         14    1    1    2    0    0 -0.13070787006E-01  0.44064770537E-02  0.18945744615E-01  0.23435096586E-01  0.00000000000E+00 0. -1.
     999901    1    3    3    0    0  0.12479913975E+00  0.45400633371E-02 -0.78005342941E-01  0.89223330524E+00  0.88000000000E+00 0.  1.
        -11    1    4    4    0    0 -0.34464399108E-01 -0.10698171586E-01  0.24371001582E-01  0.43548278040E-01  0.51100000000E-03 0. -1.
         11    1    4    4    0    0 -0.77263953631E-01  0.17516311957E-02  0.34688596745E-01  0.84713320132E-01  0.51100000000E-03 0.  1.
</event>
<event>
 8    1  0.1093753E+005  0.1043930E+01  0.7957747E-01            NaN
         13   -1    0    0    0    0  0.00000000000E+00  0.00000000000E+00  0.74505805969E-08  0.10566000000E+00  0.10566000000E+00 0.  1.
     999900   -1    0    0    0    0 -0.00000000000E+00 -0.00000000000E+00 -0.74505805969E-08  0.93827000000E+00  0.93827000000E+00 0. -1.
     999902    2    1    2    0    0 -0.37141083891E-02 -0.17358909803E-02 -0.22729951056E-01  0.10208332774E+01  0.10205719581E+01 0.  0.
     999903    2    3    3    0    0  0.10205820241E+00 -0.32113353794E-02  0.76384568720E-01  0.12897362104E+00  0.19323644329E-01 0.  0.
         14    1    1    2    0    0  0.37141083891E-02  0.17358909803E-02  0.22729951056E-01  0.23096722573E-01  0.00000000000E+00 0.  1.
     999901    1    3    3    0    0 -0.10577231080E+00  0.14754443991E-02 -0.99114519776E-01  0.89185965639E+00  0.88000000000E+00 0. -1.
        -11    1    4    4    0    0  0.60037067663E-01 -0.42271984052E-02  0.56181123989E-01  0.82334066544E-01  0.51100000000E-03 0. -1.
         11    1    4    4    0    0  0.42021134748E-01  0.10158630258E-02  0.20203444731E-01  0.46639554491E-01  0.51100000000E-03 0.  1.
</event>
<event>
 8    1  0.1093753E+005  0.1043930E+01  0.7957747E-01            NaN
         13   -1    0    0    0    0  0.00000000000E+00  0.00000000000E+00  0.74505805969E-08  0.10566000000E+00  0.10566000000E+00 0. -1.
     999900   -1    0    0    0    0 -0.00000000000E+00 -0.00000000000E+00 -0.74505805969E-08  0.93827000000E+00  0.93827000000E+00 0.  1.
     999902    2    1    2    0    0  0.10651551522E-01 -0.16655832307E-01 -0.13904551141E-01  0.10197595875E+01  0.10194731028E+01 0.  0.
     999903    2    3    3    0    0  0.59679892234E-01 -0.70372084455E-01  0.90236460568E-01  0.13063948070E+00  0.20251797293E-01 0.  0.
         14    1    1    2    0    0 -0.10651551522E-01  0.16655832307E-01  0.13904551141E-01  0.24170412535E-01  0.00000000000E+00 0. -1.
     999901    1    3    3    0    0 -0.49028340712E-01  0.53716252147E-01 -0.10414101171E+00  0.88912010677E+00  0.88000000000E+00 0.  1.
        -11    1    4    4    0    0  0.15809547944E-01 -0.78744650271E-02  0.22140024291E-01  0.28326503530E-01  0.51100000000E-03 0. -1.
         11    1    4    4    0    0  0.43870344290E-01 -0.62497619428E-01  0.68096436277E-01  0.10231297717E+00  0.51100000000E-03 0.  1.
</event>
<event>
 8    1  0.1093753E+005  0.1043930E+01  0.7957747E-01            NaN
         13   -1    0    0    0    0  0.00000000000E+00  0.00000000000E+00  0.74505805969E-08  0.10566000000E+00  0.10566000000E+00 0. -1.
     999900   -1    0    0    0    0 -0.00000000000E+00 -0.00000000000E+00 -0.74505805969E-08  0.93827000000E+00  0.93827000000E+00 0.  1.
     999902    2    1    2    0    0 -0.96625870913E-02  0.19171698602E-01 -0.10758009779E-01  0.10199163707E+01  0.10196336346E+01 0.  0.
     999903    2    3    3    0    0  0.28772885729E-01  0.94914408122E-01 -0.85788315386E-01  0.13264877277E+00  0.19985946035E-01 0.  0.
         14    1    1    2    0    0  0.96625870913E-02 -0.19171698602E-01  0.10758009779E-01  0.24013629276E-01  0.00000000000E+00 0. -1.
     999901    1    3    3    0    0 -0.38435472820E-01 -0.75742709519E-01  0.75030305607E-01  0.88726759795E+00  0.88000000000E+00 0. -1.
        -11    1    4    4    0    0  0.26622042272E-01  0.90483038687E-01 -0.74070704140E-01  0.11992766052E+00  0.51100000000E-03 0.  1.
         11    1    4    4    0    0  0.21508434567E-02  0.44313694349E-02 -0.11717611246E-01  0.12721112254E-01  0.51100000000E-03 0. -1.
</event>
<event>
 8    1  0.1093753E+005  0.1043930E+01  0.7957747E-01            NaN
         13   -1    0    0    0    0  0.00000000000E+00  0.00000000000E+00  0.74505805969E-08  0.10566000000E+00  0.10566000000E+00 0.  1.
     999900   -1    0    0    0    0 -0.00000000000E+00 -0.00000000000E+00 -0.74505805969E-08  0.93827000000E+00  0.93827000000E+00 0. -1.
     999902    2    1    2    0    0 -0.19288867052E-01  0.39702653664E-02 -0.12044095912E-01  0.10208457273E+01  0.10205846929E+01 0.  0.
     999903    2    3    3    0    0 -0.12908492300E+00  0.94122925051E-02 -0.27743762804E-01  0.13386699639E+00  0.19978682433E-01 0.  0.
         14    1    1    2    0    0  0.19288867052E-01 -0.39702653664E-02  0.12044095912E-01  0.23084272689E-01  0.00000000000E+00 0.  1.
     999901    1    3    3    0    0  0.10979605595E+00 -0.54420271388E-02  0.15699666892E-01  0.88697873092E+00  0.88000000000E+00 0.  1.
        -11    1    4    4    0    0 -0.17850979104E-01  0.71356627620E-02 -0.12390549623E-03  0.19231526502E-01  0.51100000000E-03 0.  1.
         11    1    4    4    0    0 -0.11123394390E+00  0.22766297431E-02 -0.27619857308E-01  0.11463546989E+00  0.51100000000E-03 0. -1.
</event>
<event>
 8    1  0.1093753E+005  0.1043930E+01  0.7957747E-01            NaN
         13   -1    0    0    0    0  0.00000000000E+00  0.00000000000E+00  0.74505805969E-08  0.10566000000E+00  0.10566000000E+00 0.  1.
     999900   -1    0    0    0    0 -0.00000000000E+00 -0.00000000000E+00 -0.74505805969E-08  0.93827000000E+00  0.93827000000E+00 0. -1.
     999902    2    1    2    0    0  0.16679740130E-01 -0.14209126637E-01 -0.10412812895E-01  0.10196701632E+01  0.10193815292E+01 0.  0.
     999903    2    3    3    0    0 -0.97768993534E-01 -0.55396815497E-01 -0.62005326363E-01  0.12980684457E+00  0.19431241211E-01 0.  0.
         14    1    1    2    0    0 -0.16679740130E-01  0.14209126637E-01  0.10412812895E-01  0.24259836830E-01  0.00000000000E+00 0. -1.
     999901    1    3    3    0    0  0.11444873366E+00  0.41187688860E-01  0.51592513467E-01  0.88986331860E+00  0.88000000000E+00 0.  1.
        -11    1    4    4    0    0 -0.19612797203E-01 -0.56812005548E-02 -0.49549043632E-02  0.21017850797E-01  0.51100000000E-03 0. -1.
         11    1    4    4    0    0 -0.78156196331E-01 -0.49715614942E-01 -0.57050421999E-01  0.10878899377E+00  0.51100000000E-03 0.  1.
</event>
<event>
 8    1  0.1093753E+005  0.1043930E+01  0.7957747E-01            NaN
         13   -1    0    0    0    0  0.00000000000E+00  0.00000000000E+00  0.74505805969E-08  0.10566000000E+00  0.10566000000E+00 0. -1.
     999900   -1    0    0    0    0 -0.00000000000E+00 -0.00000000000E+00 -0.74505805969E-08  0.93827000000E+00  0.93827000000E+00 0. -1.
     999902    2    1    2    0    0 -0.10369518806E-01 -0.31316035611E-02  0.20054481153E-01  0.10211371047E+01  0.10208826919E+01 0.  0.
     999903    2    3    3    0    0 -0.97001248423E-01  0.22631676000E-01  0.87167593433E-01  0.13396577234E+00  0.20668910455E-01 0.  0.
         14    1    1    2    0    0  0.10369518806E-01  0.31316035611E-02 -0.20054481153E-01  0.22792895284E-01  0.00000000000E+00 0.  1.
     999901    1    3    3    0    0  0.86631729617E-01 -0.25763279561E-01 -0.67113112280E-01  0.88717133238E+00  0.88000000000E+00 0. -1.
        -11    1    4    4    0    0 -0.61818077682E-01  0.42448766046E-02  0.55384282275E-01  0.83109407108E-01  0.51100000000E-03 0.  1.
         11    1    4    4    0    0 -0.35183170741E-01  0.18386799396E-01  0.31783311158E-01  0.50856365232E-01  0.51100000000E-03 0. -1.
</event>
<event>
 8    1  0.1093753E+005  0.1043930E+01  0.7957747E-01            NaN
         13   -1    0    0    0    0  0.00000000000E+00  0.00000000000E+00  0.74505805969E-08  0.10566000000E+00  0.10566000000E+00 0. -1.
     999900   -1    0    0    0    0 -0.00000000000E+00 -0.00000000000E+00 -0.74505805969E-08  0.93827000000E+00  0.93827000000E+00 0. -1.
     999902    2    1    2    0    0  0.76752748301E-02  0.22601485967E-01 -0.72797333823E-02  0.10189754106E+01  0.10186697973E+01 0.  0.
     999903    2    3    3    0    0  0.90741790665E-03 -0.10514114240E+00 -0.69419035872E-01  0.12755784525E+00  0.19912762482E-01 0.  0.
         14    1    1    2    0    0 -0.76752748301E-02 -0.22601485967E-01  0.72797333823E-02  0.24954589352E-01  0.00000000000E+00 0. -1.
     999901    1    3    3    0    0  0.67678569234E-02  0.12774262837E+00  0.62139302490E-01  0.89141756540E+00  0.88000000000E+00 0. -1.
        -11    1    4    4    0    0  0.80379215846E-02 -0.53445058585E-01 -0.42981427789E-01  0.69055388829E-01  0.51100000000E-03 0. -1.
         11    1    4    4    0    0 -0.71305036779E-02 -0.51696083818E-01 -0.26437608083E-01  0.58502456418E-01  0.51100000000E-03 0.  1.
</event>
<event>
 8    1  0.1093753E+005  0.1043930E+01  0.7957747E-01            NaN
         13   -1    0    0    0    0  0.00000000000E+00  0.00000000000E+00  0.74505805969E-08  0.10566000000E+00  0.10566000000E+00 0. -1.
     999900   -1    0    0    0    0 -0.00000000000E+00 -0.00000000000E+00 -0.74505805969E-08  0.93827000000E+00  0.93827000000E+00 0. -1.
     999902    2    1    2    0    0 -0.13503518848E-01 -0.37833989051E-02  0.16381125102E-01  0.10223661323E+01  0.10221386932E+01 0.  0.
     999903    2    3    3    0    0 -0.61666288723E-01  0.10853982461E+00 -0.38763175175E-01  0.13221049832E+00  0.19834500877E-01 0.  0.
         14    1    1    2    0    0  0.13503518848E-01  0.37833989051E-02 -0.16381125102E-01  0.21563867653E-01  0.00000000000E+00 0.  1.
     999901    1    3    3    0    0  0.48162769875E-01 -0.11232322351E+00  0.55144300277E-01  0.89015563403E+00  0.88000000000E+00 0.  1.
        -11    1    4    4    0    0 -0.33149931310E-01  0.47064948766E-01 -0.26352847601E-01  0.63314777468E-01  0.51100000000E-03 0. -1.
         11    1    4    4    0    0 -0.28516357413E-01  0.61474875841E-01 -0.12410327575E-01  0.68895720849E-01  0.51100000000E-03 0.  1.
</event>
<event>
 8    1  0.1093753E+005  0.1043930E+01  0.7957747E-01            NaN
         13   -1    0    0    0    0  0.00000000000E+00  0.00000000000E+00  0.74505805969E-08  0.10566000000E+00  0.10566000000E+00 0. -1.
     999900   -1    0    0    0    0 -0.00000000000E+00 -0.00000000000E+00 -0.74505805969E-08  0.93827000000E+00  0.93827000000E+00 0. -1.
     999902    2    1    2    0    0 -0.12330711941E-01 -0.78221434201E-02 -0.17852007966E-01  0.10208664666E+01  0.10206059063E+01 0.  0.
     999903    2    3    3    0    0  0.12349446049E+00  0.21205239937E-01  0.23763906397E-01  0.12900159411E+00  0.19394433829E-01 0.  0.
         14    1    1    2    0    0  0.12330711941E-01  0.78221434201E-02  0.17852007966E-01  0.23063533404E-01  0.00000000000E+00 0. -1.
     999901    1    3    3    0    0 -0.13582517243E+00 -0.29027383358E-01 -0.41615914363E-01  0.89186487249E+00  0.88000000000E+00 0. -1.
        -11    1    4    4    0    0  0.49541691887E-01  0.39741317246E-02  0.17944508176E-01  0.52843537473E-01  0.51100000000E-03 0. -1.
         11    1    4    4    0    0  0.73952768600E-01  0.17231108213E-01  0.58193982213E-02  0.76158056635E-01  0.51100000000E-03 0.  1.
</event>
<event>
 8    1  0.1093753E+005  0.1043930E+01  0.7957747E-01            NaN
         13   -1    0    0    0    0  0.00000000000E+00  0.00000000000E+00  0.74505805969E-08  0.10566000000E+00  0.10566000000E+00 0. -1.
     999900   -1    0    0    0    0 -0.00000000000E+00 -0.00000000000E+00 -0.74505805969E-08  0.93827000000E+00  0.93827000000E+00 0.  1.
     999902    2    1    2    0    0 -0.59349396771E-02  0.21568408886E-01  0.78270209640E-02  0.10202301682E+01  0.10199548588E+01 0.  0.
     999903    2    3    3    0    0  0.12471873873E+00  0.24794425008E-02  0.31110329181E-01  0.13007462854E+00  0.19764740904E-01 0.  0.
         14    1    1    2    0    0  0.59349396771E-02 -0.21568408886E-01 -0.78270209640E-02  0.23699831814E-01  0.00000000000E+00 0.  1.
     999901    1    3    3    0    0 -0.13065367841E+00  0.19088966385E-01 -0.23283308217E-01  0.89015553964E+00  0.88000000000E+00 0.  1.
        -11    1    4    4    0    0  0.49712661690E-01  0.15953640873E-02  0.22419066724E-01  0.54559779991E-01  0.51100000000E-03 0. -1.
         11    1    4    4    0    0  0.75006077040E-01  0.88407841345E-03  0.86912624570E-02  0.75514848551E-01  0.51100000000E-03 0.  1.
</event>
<event>
 8    1  0.1093753E+005  0.1043930E+01  0.7957747E-01            NaN
         13   -1    0    0    0    0  0.00000000000E+00  0.00000000000E+00  0.74505805969E-08  0.10566000000E+00  0.10566000000E+00 0. -1.
     999900   -1    0    0    0    0 -0.00000000000E+00 -0.00000000000E+00 -0.74505805969E-08  0.93827000000E+00  0.93827000000E+00 0.  1.
     999902    2    1    2    0    0 -0.98602371085E-02  0.13381907093E-01 -0.30227246002E-02  0.10270351316E+01  0.10268961608E+01 0.  0.
     999903    2    3    3    0    0 -0.25719543905E-01  0.76043812832E-01 -0.11060918206E+00  0.13812969354E+00  0.20031591839E-01 0.  0.
         14    1    1    2    0    0  0.98602371085E-02 -0.13381907093E-01  0.30227246002E-02  0.16894868372E-01  0.00000000000E+00 0. -1.
     999901    1    3    3    0    0  0.15859306797E-01 -0.62661905739E-01  0.10758645746E+00  0.88890543809E+00  0.88000000000E+00 0. -1.
        -11    1    4    4    0    0 -0.21309468089E-01  0.45259440421E-01 -0.54524218905E-01  0.73997715814E-01  0.51100000000E-03 0. -1.
         11    1    4    4    0    0 -0.44100758160E-02  0.30784372411E-01 -0.56084963154E-01  0.64131977721E-01  0.51100000000E-03 0.  1.
</event>
<event>
 8    1  0.1093753E+005  0.1043930E+01  0.7957747E-01            NaN
         13   -1    0    0    0    0  0.00000000000E+00  0.00000000000E+00  0.74505805969E-08  0.10566000000E+00  0.10566000000E+00 0. -1.
     999900   -1    0    0    0    0 -0.00000000000E+00 -0.00000000000E+00 -0.74505805969E-08  0.93827000000E+00  0.93827000000E+00 0.  1.
     999902    2    1    2    0    0 -0.13463872162E-01  0.13938807208E-01  0.15086377156E-01  0.10193705827E+01  0.10190746881E+01 0.  0.
     999903    2    3    3    0    0  0.14117704531E-01  0.12358616448E+00 -0.34803255867E-01  0.13073552728E+00  0.20190637457E-01 0.  0.
         14    1    1    2    0    0  0.13463872162E-01 -0.13938807208E-01 -0.15086377156E-01  0.24559417250E-01  0.00000000000E+00 0.  1.
     999901    1    3    3    0    0 -0.27581576693E-01 -0.10964735728E+00  0.49889633023E-01  0.88863505547E+00  0.88000000000E+00 0. -1.
        -11    1    4    4    0    0  0.89174388293E-02  0.72387081762E-01 -0.10043726062E-01  0.73624370119E-01  0.51100000000E-03 0.  1.
         11    1    4    4    0    0  0.52002657018E-02  0.51199082721E-01 -0.24759529805E-01  0.57111157159E-01  0.51100000000E-03 0. -1.
</event>
<event>
 8    1  0.1093753E+005  0.1043930E+01  0.7957747E-01            NaN
         13   -1    0    0    0    0  0.00000000000E+00  0.00000000000E+00  0.74505805969E-08  0.10566000000E+00  0.10566000000E+00 0. -1.
     999900   -1    0    0    0    0 -0.00000000000E+00 -0.00000000000E+00 -0.74505805969E-08  0.93827000000E+00  0.93827000000E+00 0. -1.
     999902    2    1    2    0    0  0.20239191023E-01  0.66714081898E-02  0.85890631261E-02  0.10209538266E+01  0.10206952588E+01 0.  0.
     999903    2    3    3    0    0  0.49808457634E-02 -0.11493330719E+00 -0.57096360204E-01  0.13003570533E+00  0.20367041626E-01 0.  0.
         14    1    1    2    0    0 -0.20239191023E-01 -0.66714081898E-02 -0.85890631261E-02  0.22976173439E-01  0.00000000000E+00 0. -1.
     999901    1    3    3    0    0  0.15258345259E-01  0.12160471538E+00  0.65685423330E-01  0.89091812123E+00  0.88000000000E+00 0.  1.
        -11    1    4    4    0    0  0.12881538450E-01 -0.67904561035E-01 -0.32537200730E-01  0.76393023206E-01  0.51100000000E-03 0.  1.
         11    1    4    4    0    0 -0.79006926864E-02 -0.47028746159E-01 -0.24559159474E-01  0.53642682122E-01  0.51100000000E-03 0. -1.
</event>
<event>
 8    1  0.1093753E+005  0.1043930E+01  0.7957747E-01            NaN
         13   -1    0    0    0    0  0.00000000000E+00  0.00000000000E+00  0.74505805969E-08  0.10566000000E+00  0.10566000000E+00 0. -1.
     999900   -1    0    0    0    0 -0.00000000000E+00 -0.00000000000E+00 -0.74505805969E-08  0.93827000000E+00  0.93827000000E+00 0.  1.
     999902    2    1    2    0    0 -0.12682258312E-01  0.21094376492E-01  0.86420919065E-03  0.10193015763E+01  0.10190039962E+01 0.  0.
     999903    2    3    3    0    0  0.12519525898E+00 -0.15515776718E-01 -0.44877118152E-02  0.12779770300E+00  0.19937932058E-01 0.  0.
         14    1    1    2    0    0  0.12682258312E-01 -0.21094376492E-01 -0.86420919065E-03  0.24628423681E-01  0.00000000000E+00 0.  1.
     999901    1    3    3    0    0 -0.13787751729E+00  0.36610153209E-01  0.53519210058E-02  0.89150387332E+00  0.88000000000E+00 0. -1.
        -11    1    4    4    0    0  0.76229931290E-01  0.38862720409E-03 -0.27862351734E-02  0.76283534809E-01  0.51100000000E-03 0. -1.
         11    1    4    4    0    0  0.48965327693E-01 -0.15904403922E-01 -0.17014766418E-02  0.51514168186E-01  0.51100000000E-03 0.  1.
</event>
<event>
 7    1  0.1093753E+005  0.1043930E+01  0.7957747E-01            NaN
         13   -1    0    0    0    0  0.00000000000E+00  0.00000000000E+00  0.74505805969E-08  0.10566000000E+00  0.10566000000E+00 0. -1.
     999900   -1    0    0    0    0 -0.00000000000E+00 -0.00000000000E+00 -0.74505805969E-08  0.93827000000E+00  0.93827000000E+00 0. -1.
     999903    2    1    2    0    0  0.54875233636E-01 -0.84591226301E-01  0.51894021532E-02  0.10292861539E+00  0.20010075881E-01 0.  0.
         14    1    1    2    0    0  0.16188493755E-01  0.53992937070E-01  0.11129935639E-01  0.57455896572E-01  0.00000000000E+00 0.  1.
     999901    1    1    2    0    0 -0.71063727391E-01  0.30598289231E-01 -0.16319337792E-01  0.88354548804E+00  0.88000000000E+00 0. -1.
        -11    1    3    3    0    0  0.32773108283E-01 -0.61228455830E-01 -0.37302605839E-02  0.69549812328E-01  0.51100000000E-03 0.  1.
         11    1    3    3    0    0  0.22102125353E-01 -0.23362770471E-01  0.89196627371E-02  0.33378803058E-01  0.51100000000E-03 0. -1.
</event>
<event>
 8    1  0.1093753E+005  0.1043930E+01  0.7957747E-01            NaN
         13   -1    0    0    0    0  0.00000000000E+00  0.00000000000E+00  0.74505805969E-08  0.10566000000E+00  0.10566000000E+00 0. -1.
     999900   -1    0    0    0    0 -0.00000000000E+00 -0.00000000000E+00 -0.74505805969E-08  0.93827000000E+00  0.93827000000E+00 0. -1.
     999902    2    1    2    0    0  0.11320029961E-01  0.13490291276E-01 -0.11979655791E-01  0.10226310989E+01  0.10224092728E+01 0.  0.
     999903    2    3    3    0    0  0.95782887655E-01  0.25437900725E-01 -0.89693627555E-01  0.13509733549E+00  0.19618737801E-01 0.  0.
         14    1    1    2    0    0 -0.11320029961E-01 -0.13490291276E-01  0.11979655791E-01  0.21298901143E-01  0.00000000000E+00 0.  1.
     999901    1    3    3    0    0 -0.84462857694E-01 -0.11947609448E-01  0.77713971764E-01  0.88753376336E+00  0.88000000000E+00 0.  1.
        -11    1    4    4    0    0  0.56280930375E-01  0.77793473463E-02 -0.59894428532E-01  0.82557041245E-01  0.51100000000E-03 0. -1.
         11    1    4    4    0    0  0.39501957280E-01  0.17658553378E-01 -0.29799199023E-01  0.52540294249E-01  0.51100000000E-03 0.  1.
</event>
<event>
 8    1  0.1093753E+005  0.1043930E+01  0.7957747E-01            NaN
         13   -1    0    0    0    0  0.00000000000E+00  0.00000000000E+00  0.74505805969E-08  0.10566000000E+00  0.10566000000E+00 0.  1.
     999900   -1    0    0    0    0 -0.00000000000E+00 -0.00000000000E+00 -0.74505805969E-08  0.93827000000E+00  0.93827000000E+00 0. -1.
     999902    2    1    2    0    0  0.22723418845E-01  0.19423763862E-02 -0.13415482634E-01  0.10174705638E+01  0.10171264653E+01 0.  0.
     999903    2    3    3    0    0  0.65858169858E-01  0.10982745735E+00 -0.79737438509E-02  0.12981668420E+00  0.19733777665E-01 0.  0.
         14    1    1    2    0    0 -0.22723418845E-01 -0.19423763862E-02  0.13415482634E-01  0.26459436206E-01  0.00000000000E+00 0.  1.
     999901    1    3    3    0    0 -0.43134751013E-01 -0.10788508096E+00 -0.54417387834E-02  0.88765387959E+00  0.88000000000E+00 0. -1.
        -11    1    4    4    0    0  0.59986201845E-01  0.84916690899E-01 -0.68280341855E-02  0.10419247563E+00  0.51100000000E-03 0.  1.
         11    1    4    4    0    0  0.58719680126E-02  0.24910766448E-01 -0.11457096654E-02  0.25624208573E-01  0.51100000000E-03 0. -1.
</event>
<event>
 8    1  0.1093753E+005  0.1043930E+01  0.7957747E-01            NaN
         13   -1    0    0    0    0  0.00000000000E+00  0.00000000000E+00  0.74505805969E-08  0.10566000000E+00  0.10566000000E+00 0.  1.
     999900   -1    0    0    0    0 -0.00000000000E+00 -0.00000000000E+00 -0.74505805969E-08  0.93827000000E+00  0.93827000000E+00 0.  1.
     999902    2    1    2    0    0 -0.18539395905E-02 -0.23123840180E-01  0.35443014594E-02  0.10204627643E+01  0.10201928946E+01 0.  0.
     999903    2    3    3    0    0  0.11312400790E+00 -0.30570239882E-01  0.55936509124E-01  0.13140690518E+00  0.20181698324E-01 0.  0.
         14    1    1    2    0    0  0.18539395905E-02  0.23123840180E-01 -0.35443014594E-02  0.23467235659E-01  0.00000000000E+00 0. -1.
     999901    1    3    3    0    0 -0.11497794749E+00  0.74463997025E-02 -0.52392207664E-01  0.88905585916E+00  0.88000000000E+00 0. -1.
        -11    1    4    4    0    0  0.37044992598E-01 -0.17143051724E-01  0.12090157942E-01  0.42575212731E-01  0.51100000000E-03 0. -1.
         11    1    4    4    0    0  0.76079015302E-01 -0.13427188158E-01  0.43846351181E-01  0.88831692453E-01  0.51100000000E-03 0.  1.
</event>
<event>
 8    1  0.1093753E+005  0.1043930E+01  0.7957747E-01            NaN
         13   -1    0    0    0    0  0.00000000000E+00  0.00000000000E+00  0.74505805969E-08  0.10566000000E+00  0.10566000000E+00 0. -1.
     999900   -1    0    0    0    0 -0.00000000000E+00 -0.00000000000E+00 -0.74505805969E-08  0.93827000000E+00  0.93827000000E+00 0.  1.
     999902    2    1    2    0    0  0.10180929156E-01  0.15035841199E-01  0.16384191870E-01  0.10194724944E+01  0.10191790800E+01 0.  0.
     999903    2    3    3    0    0  0.11042418011E+00  0.41119755722E-01 -0.53128645195E-01  0.13067492771E+00  0.19208069349E-01 0.  0.
         14    1    1    2    0    0 -0.10180929156E-01 -0.15035841199E-01 -0.16384191870E-01  0.24457505643E-01  0.00000000000E+00 0.  1.
     999901    1    3    3    0    0 -0.10024325095E+00 -0.26083914523E-01  0.69512837065E-01  0.88879756665E+00  0.88000000000E+00 0. -1.
        -11    1    4    4    0    0  0.85798096258E-01  0.23224651532E-01 -0.41276898459E-01  0.98003781701E-01  0.51100000000E-03 0.  1.
         11    1    4    4    0    0  0.24626083853E-01  0.17895104190E-01 -0.11851746736E-01  0.32671146010E-01  0.51100000000E-03 0. -1.
</event>
<event>
 8    1  0.1093753E+005  0.1043930E+01  0.7957747E-01            NaN
         13   -1    0    0    0    0  0.00000000000E+00  0.00000000000E+00  0.74505805969E-08  0.10566000000E+00  0.10566000000E+00 0.  1.
     999900   -1    0    0    0    0 -0.00000000000E+00 -0.00000000000E+00 -0.74505805969E-08  0.93827000000E+00  0.93827000000E+00 0.  1.
     999902    2    1    2    0    0 -0.23585124050E-01  0.40920723733E-02 -0.59746532387E-02  0.10192581615E+01  0.10189595184E+01 0.  0.
     999903    2    3    3    0    0 -0.31688028372E-01 -0.58783588840E-02 -0.12575868951E+00  0.13105025686E+00  0.17895127524E-01 0.  0.
         14    1    1    2    0    0  0.23585124050E-01 -0.40920723733E-02  0.59746532387E-02  0.24671838482E-01  0.00000000000E+00 0. -1.
     999901    1    3    3    0    0  0.81029043218E-02  0.99704312573E-02  0.11978403627E+00  0.88820790466E+00  0.88000000000E+00 0. -1.
        -11    1    4    4    0    0 -0.15101995878E-01 -0.10976010079E-01 -0.51274412041E-01  0.54569859152E-01  0.51100000000E-03 0.  1.
         11    1    4    4    0    0 -0.16586032494E-01  0.50976511952E-02 -0.74484277471E-01  0.76480397704E-01  0.51100000000E-03 0. -1.
</event>
<event>
 8    1  0.1093753E+005  0.1043930E+01  0.7957747E-01            NaN
         13   -1    0    0    0    0  0.00000000000E+00  0.00000000000E+00  0.74505805969E-08  0.10566000000E+00  0.10566000000E+00 0.  1.
     999900   -1    0    0    0    0 -0.00000000000E+00 -0.00000000000E+00 -0.74505805969E-08  0.93827000000E+00  0.93827000000E+00 0. -1.
     999902    2    1    2    0    0  0.10107817750E-01  0.15312812611E-01  0.14312338054E-01  0.10206599929E+01  0.10203946922E+01 0.  0.
     999903    2    3    3    0    0 -0.20926239531E-01 -0.10679775859E+00  0.67942580156E-01  0.13007012816E+00  0.21409701117E-01 0.  0.
         14    1    1    2    0    0 -0.10107817750E-01 -0.15312812611E-01 -0.14312338054E-01  0.23270007097E-01  0.00000000000E+00 0. -1.
     999901    1    3    3    0    0  0.31034057281E-01  0.12211057120E+00 -0.53630242103E-01  0.89058986474E+00  0.88000000000E+00 0. -1.
        -11    1    4    4    0    0 -0.16738659866E-04 -0.55352032498E-01  0.35303150346E-01  0.65653799031E-01  0.51100000000E-03 0. -1.
         11    1    4    4    0    0 -0.20909500871E-01 -0.51445726089E-01  0.32639429810E-01  0.64416329132E-01  0.51100000000E-03 0.  1.
</event>
<event>
 8    1  0.1093753E+005  0.1043930E+01  0.7957747E-01            NaN
         13   -1    0    0    0    0  0.00000000000E+00  0.00000000000E+00  0.74505805969E-08  0.10566000000E+00  0.10566000000E+00 0. -1.
     999900   -1    0    0    0    0 -0.00000000000E+00 -0.00000000000E+00 -0.74505805969E-08  0.93827000000E+00  0.93827000000E+00 0. -1.
     999902    2    1    2    0    0  0.62567915068E-02  0.58015770784E-02  0.21510910049E-01  0.10207885872E+01  0.10205262440E+01 0.  0.
     999903    2    3    3    0    0 -0.88122722103E-01 -0.48009251458E-01 -0.77936605337E-01  0.12854820130E+00  0.19494184534E-01 0.  0.
         14    1    1    2    0    0 -0.62567915068E-02 -0.58015770784E-02 -0.21510910049E-01  0.23141412829E-01  0.00000000000E+00 0.  1.
     999901    1    3    3    0    0  0.94379513610E-01  0.53810828536E-01  0.99447515386E-01  0.89224038587E+00  0.88000000000E+00 0. -1.
        -11    1    4    4    0    0 -0.49166016318E-01 -0.28769659454E-01 -0.55961559816E-01  0.79855793551E-01  0.51100000000E-03 0. -1.
         11    1    4    4    0    0 -0.38956705785E-01 -0.19239592004E-01 -0.21975045521E-01  0.48692407752E-01  0.51100000000E-03 0.  1.
</event>
<event>
 8    1  0.1093753E+005  0.1043930E+01  0.7957747E-01            NaN
         13   -1    0    0    0    0  0.00000000000E+00  0.00000000000E+00  0.74505805969E-08  0.10566000000E+00  0.10566000000E+00 0.  1.
     999900   -1    0    0    0    0 -0.00000000000E+00 -0.00000000000E+00 -0.74505805969E-08  0.93827000000E+00  0.93827000000E+00 0.  1.
     999902    2    1    2    0    0  0.19908186475E-02  0.20769518765E-01  0.10733986321E-01  0.10204660973E+01  0.10201963051E+01 0.  0.
     999903    2    3    3    0    0 -0.12228298895E+00  0.42467809516E-01  0.11206489377E-01  0.13146946155E+00  0.20049680438E-01 0.  0.
         14    1    1    2    0    0 -0.19908186475E-02 -0.20769518765E-01 -0.10733986321E-01  0.23463902723E-01  0.00000000000E+00 0. -1.
     999901    1    3    3    0    0  0.12427380759E+00 -0.21698290751E-01 -0.47250305560E-03  0.88899663573E+00  0.88000000000E+00 0.  1.
        -11    1    4    4    0    0 -0.10843174623E+00  0.43025465668E-01  0.65653293397E-02  0.11684176888E+00  0.51100000000E-03 0. -1.
         11    1    4    4    0    0 -0.13851242719E-01 -0.55765615212E-03  0.46411600370E-02  0.14627692666E-01  0.51100000000E-03 0.  1.
</event>
<event>
 8    1  0.1093753E+005  0.1043930E+01  0.7957747E-01            NaN
         13   -1    0    0    0    0  0.00000000000E+00  0.00000000000E+00  0.74505805969E-08  0.10566000000E+00  0.10566000000E+00 0.  1.
     999900   -1    0    0    0    0 -0.00000000000E+00 -0.00000000000E+00 -0.74505805969E-08  0.93827000000E+00  0.93827000000E+00 0. -1.
     999902    2    1    2    0    0  0.73832682926E-02 -0.33329854469E-02 -0.23076264360E-01  0.10194731928E+01  0.10191797954E+01 0.  0.
     999903    2    3    3    0    0 -0.11582943846E+00 -0.55045947161E-01 -0.24965749902E-02  0.12914790103E+00  0.15047668930E-01 0.  0.
         14    1    1    2    0    0 -0.73832682926E-02  0.33329854469E-02  0.23076264360E-01  0.24456807222E-01  0.00000000000E+00 0.  1.
     999901    1    3    3    0    0  0.12321270675E+00  0.51712961714E-01 -0.20579689370E-01  0.89032529175E+00  0.88000000000E+00 0.  1.
        -11    1    4    4    0    0 -0.64138168572E-01 -0.26042633645E-01  0.49771857762E-02  0.69404300545E-01  0.51100000000E-03 0. -1.
         11    1    4    4    0    0 -0.51691269889E-01 -0.29003313516E-01 -0.74737607664E-02  0.59743600483E-01  0.51100000000E-03 0.  1.
</event>
<event>
 8    1  0.1093753E+005  0.1043930E+01  0.7957747E-01            NaN
         13   -1    0    0    0    0  0.00000000000E+00  0.00000000000E+00  0.74505805969E-08  0.10566000000E+00  0.10566000000E+00 0.  1.
     999900   -1    0    0    0    0 -0.00000000000E+00 -0.00000000000E+00 -0.74505805969E-08  0.93827000000E+00  0.93827000000E+00 0.  1.
     999902    2    1    2    0    0  0.83259408497E-02  0.14190063970E-01  0.16459089710E-01  0.10206581105E+01  0.10203927664E+01 0.  0.
     999903    2    3    3    0    0  0.56525787494E-01  0.85559691945E-01  0.82423010871E-01  0.13399690807E+00  0.25416394580E-01 0.  0.
         14    1    1    2    0    0 -0.83259408497E-02 -0.14190063970E-01 -0.16459089710E-01  0.23271889493E-01  0.00000000000E+00 0. -1.
     999901    1    3    3    0    0 -0.48199846644E-01 -0.71369627975E-01 -0.65963921161E-01  0.88666120244E+00  0.88000000000E+00 0. -1.
        -11    1    4    4    0    0  0.10026246406E-01  0.35706898909E-01  0.23685524641E-01  0.44008788272E-01  0.51100000000E-03 0.  1.
         11    1    4    4    0    0  0.46499541087E-01  0.49852793036E-01  0.58737486231E-01  0.89988119796E-01  0.51100000000E-03 0. -1.
</event>
<event>
 8    1  0.1093753E+005  0.1043930E+01  0.7957747E-01            NaN
         13   -1    0    0    0    0  0.00000000000E+00  0.00000000000E+00  0.74505805969E-08  0.10566000000E+00  0.10566000000E+00 0.  1.
     999900   -1    0    0    0    0 -0.00000000000E+00 -0.00000000000E+00 -0.74505805969E-08  0.93827000000E+00  0.93827000000E+00 0.  1.
     999902    2    1    2    0    0 -0.16009338920E-01 -0.14312890218E-01 -0.10688446387E-01  0.10199424898E+01  0.10196603757E+01 0.  0.
     999903    2    3    3    0    0  0.79300202507E-01 -0.10108464659E+00 -0.11580018541E-01  0.13055278822E+00  0.20082474637E-01 0.  0.
         14    1    1    2    0    0  0.16009338920E-01  0.14312890218E-01  0.10688446387E-01  0.23987510192E-01  0.00000000000E+00 0.  1.
     999901    1    3    3    0    0 -0.95309541427E-01  0.86771756377E-01  0.89157215383E-03  0.88938970159E+00  0.88000000000E+00 0. -1.
        -11    1    4    4    0    0  0.12244013778E-01 -0.22737533570E-01 -0.91346955746E-02  0.27397355538E-01  0.51100000000E-03 0. -1.
         11    1    4    4    0    0  0.67056188729E-01 -0.78347113025E-01 -0.24453229662E-02  0.10315543268E+00  0.51100000000E-03 0.  1.
</event>
<event>
 8    1  0.1093753E+005  0.1043930E+01  0.7957747E-01            NaN
         13   -1    0    0    0    0  0.00000000000E+00  0.00000000000E+00  0.74505805969E-08  0.10566000000E+00  0.10566000000E+00 0.  1.
     999900   -1    0    0    0    0 -0.00000000000E+00 -0.00000000000E+00 -0.74505805969E-08  0.93827000000E+00  0.93827000000E+00 0. -1.
     999902    2    1    2    0    0 -0.54532840604E-02  0.18821919501E-01 -0.59233200090E-02  0.10234583445E+01  0.10232535825E+01 0.  0.
     999903    2    3    3    0    0  0.27333840090E-01 -0.10099576041E+00 -0.77500776520E-01  0.13185607651E+00  0.20793559467E-01 0.  0.
         14    1    1    2    0    0  0.54532840604E-02 -0.18821919501E-01  0.59233200090E-02  0.20471655543E-01  0.00000000000E+00 0.  1.
     999901    1    3    3    0    0 -0.32787124151E-01  0.11981767992E+00  0.71577456511E-01  0.89160226795E+00  0.88000000000E+00 0.  1.
        -11    1    4    4    0    0  0.17147277870E-01 -0.80211740808E-01 -0.50654995483E-01  0.96406131497E-01  0.51100000000E-03 0. -1.
         11    1    4    4    0    0  0.10186562221E-01 -0.20784019606E-01 -0.26845781037E-01  0.35449945012E-01  0.51100000000E-03 0.  1.
</event>
<event>
 8    1  0.1093753E+005  0.1043930E+01  0.7957747E-01            NaN
         13   -1    0    0    0    0  0.00000000000E+00  0.00000000000E+00  0.74505805969E-08  0.10566000000E+00  0.10566000000E+00 0. -1.
     999900   -1    0    0    0    0 -0.00000000000E+00 -0.00000000000E+00 -0.74505805969E-08  0.93827000000E+00  0.93827000000E+00 0. -1.
     999902    2    1    2    0    0 -0.50447961085E-03  0.16590442605E-01 -0.16277654887E-01  0.10206822187E+01  0.10204174304E+01 0.  0.
     999903    2    3    3    0    0 -0.11228817892E+00  0.91861194103E-02 -0.66105601579E-01  0.13218165952E+00  0.20224258696E-01 0.  0.
         14    1    1    2    0    0  0.50447961085E-03 -0.16590442605E-01  0.16277654887E-01  0.23247781273E-01  0.00000000000E+00 0. -1.
     999901    1    3    3    0    0  0.11178369931E+00  0.74043231944E-02  0.49827946692E-01  0.88850055920E+00  0.88000000000E+00 0. -1.
        -11    1    4    4    0    0 -0.52826733991E-02  0.42321801569E-02 -0.10930942775E-02  0.68756063893E-02  0.51100000000E-03 0. -1.
         11    1    4    4    0    0 -0.10700550552E+00  0.49539392534E-02 -0.65012507301E-01  0.12530605313E+00  0.51100000000E-03 0.  1.
</event>
<event>
 8    1  0.1093753E+005  0.1043930E+01  0.7957747E-01            NaN
         13   -1    0    0    0    0  0.00000000000E+00  0.00000000000E+00  0.74505805969E-08  0.10566000000E+00  0.10566000000E+00 0.  1.
     999900   -1    0    0    0    0 -0.00000000000E+00 -0.00000000000E+00 -0.74505805969E-08  0.93827000000E+00  0.93827000000E+00 0. -1.
     999902    2    1    2    0    0 -0.18205205337E-01 -0.13784047440E-01 -0.29689824412E-02  0.10209029654E+01  0.10206432386E+01 0.  0.
     999903    2    3    3    0    0 -0.11341508517E+00  0.54996395538E-01 -0.35747293162E-01  0.13249422603E+00  0.19729822506E-01 0.  0.
         14    1    1    2    0    0  0.18205205337E-01  0.13784047440E-01  0.29689824412E-02  0.23027034588E-01  0.00000000000E+00 0. -1.
     999901    1    3    3    0    0  0.95209879836E-01 -0.68780442978E-01  0.32778310721E-01  0.88840873938E+00  0.88000000000E+00 0. -1.
        -11    1    4    4    0    0 -0.75604088483E-01  0.26326250044E-01 -0.20343464864E-01  0.82602465583E-01  0.51100000000E-03 0. -1.
         11    1    4    4    0    0 -0.37810996690E-01  0.28670145494E-01 -0.15403828298E-01  0.49891760448E-01  0.51100000000E-03 0.  1.
</event>
<event>
 8    1  0.1093753E+005  0.1043930E+01  0.7957747E-01            NaN
         13   -1    0    0    0    0  0.00000000000E+00  0.00000000000E+00  0.74505805969E-08  0.10566000000E+00  0.10566000000E+00 0.  1.
     999900   -1    0    0    0    0 -0.00000000000E+00 -0.00000000000E+00 -0.74505805969E-08  0.93827000000E+00  0.93827000000E+00 0.  1.
     999902    2    1    2    0    0  0.15057304907E-01  0.20237207406E-01 -0.31686284601E-02  0.10185074273E+01  0.10181900964E+01 0.  0.
     999903    2    3    3    0    0 -0.11725421781E-01 -0.26218574727E-01  0.12304676933E+00  0.12788641883E+00  0.19736501809E-01 0.  0.
         14    1    1    2    0    0 -0.15057304907E-01 -0.20237207406E-01  0.31686284601E-02  0.25422572666E-01  0.00000000000E+00 0.  1.
     999901    1    3    3    0    0  0.26782726689E-01  0.46455782133E-01 -0.12621539779E+00  0.89062100850E+00  0.88000000000E+00 0.  1.
        -11    1    4    4    0    0 -0.43697437645E-02 -0.26792042827E-01  0.10301892491E+00  0.10653669898E+00  0.51100000000E-03 0.  1.
         11    1    4    4    0    0 -0.73556780169E-02  0.57346810060E-03  0.20027844422E-01  0.21349719856E-01  0.51100000000E-03 0. -1.
</event>
<event>
 8    1  0.1093753E+005  0.1043930E+01  0.7957747E-01            NaN
         13   -1    0    0    0    0  0.00000000000E+00  0.00000000000E+00  0.74505805969E-08  0.10566000000E+00  0.10566000000E+00 0. -1.
     999900   -1    0    0    0    0 -0.00000000000E+00 -0.00000000000E+00 -0.74505805969E-08  0.93827000000E+00  0.93827000000E+00 0.  1.
     999902    2    1    2    0    0 -0.75887676298E-02 -0.10397922281E-01  0.18823447796E-01  0.10211258695E+01  0.10208712029E+01 0.  0.
     999903    2    3    3    0    0 -0.80327012555E-01  0.51322327614E-01  0.90708637839E-01  0.13305620888E+00  0.19735437321E-01 0.  0.
         14    1    1    2    0    0  0.75887676298E-02  0.10397922281E-01 -0.18823447796E-01  0.22804130521E-01  0.00000000000E+00 0. -1.
     999901    1    3    3    0    0  0.72738244925E-01 -0.61720249894E-01 -0.71885190042E-01  0.88806966059E+00  0.88000000000E+00 0. -1.
        -11    1    4    4    0    0 -0.37658609007E-01  0.32721612542E-01  0.55935466310E-01  0.74952733586E-01  0.51100000000E-03 0. -1.
         11    1    4    4    0    0 -0.42668403548E-01  0.18600715072E-01  0.34773171529E-01  0.58103475298E-01  0.51100000000E-03 0.  1.
</event>
<event>
 8    1  0.1093753E+005  0.1043930E+01  0.7957747E-01            NaN
         13   -1    0    0    0    0  0.00000000000E+00  0.00000000000E+00  0.74505805969E-08  0.10566000000E+00  0.10566000000E+00 0. -1.
     999900   -1    0    0    0    0 -0.00000000000E+00 -0.00000000000E+00 -0.74505805969E-08  0.93827000000E+00  0.93827000000E+00 0.  1.
     999902    2    1    2    0    0 -0.74806345901E-02 -0.20986334184E-01  0.75402882853E-02  0.10204089017E+01  0.10201377773E+01 0.  0.
     999903    2    3    3    0    0  0.72999334210E-01  0.93779389879E-01  0.35865464331E-01  0.12886500915E+00  0.34588759602E-01 0.  0.
         14    1    1    2    0    0  0.74806345901E-02  0.20986334184E-01 -0.75402882853E-02  0.23521098269E-01  0.00000000000E+00 0. -1.
     999901    1    3    3    0    0 -0.80479968800E-01 -0.11476572406E+00 -0.28325176046E-01  0.89154389258E+00  0.88000000000E+00 0.  1.
        -11    1    4    4    0    0  0.58279929672E-01  0.64170454197E-01  0.10774913796E-01  0.87354205867E-01  0.51100000000E-03 0.  1.
         11    1    4    4    0    0  0.14719404538E-01  0.29608935682E-01  0.25090550535E-01  0.41510803285E-01  0.51100000000E-03 0. -1.
</event>
<event>
 8    1  0.1093753E+005  0.1043930E+01  0.7957747E-01            NaN
         13   -1    0    0    0    0  0.00000000000E+00  0.00000000000E+00  0.74505805969E-08  0.10566000000E+00  0.10566000000E+00 0.  1.
     999900   -1    0    0    0    0 -0.00000000000E+00 -0.00000000000E+00 -0.74505805969E-08  0.93827000000E+00  0.93827000000E+00 0. -1.
     999902    2    1    2    0    0  0.11966275541E-01 -0.11874643650E-01 -0.17742448413E-01  0.10194556586E+01  0.10191618352E+01 0.  0.
     999903    2    3    3    0    0 -0.43454868176E-01 -0.10797542055E+00  0.53077478397E-01  0.12966786111E+00  0.21201850884E-01 0.  0.
         14    1    1    2    0    0 -0.11966275541E-01  0.11874643650E-01  0.17742448413E-01  0.24474341418E-01  0.00000000000E+00 0.  1.
     999901    1    3    3    0    0  0.55421143718E-01  0.96100776902E-01 -0.70819926810E-01  0.88978779747E+00  0.88000000000E+00 0. -1.
        -11    1    4    4    0    0 -0.45788023235E-01 -0.10030269416E+00  0.49037056421E-01  0.12067339206E+00  0.51100000000E-03 0. -1.
         11    1    4    4    0    0  0.23331550589E-02 -0.76727263895E-02  0.40404219753E-02  0.89944690514E-02  0.51100000000E-03 0.  1.
</event>
<event>
 8    1  0.1093753E+005  0.1043930E+01  0.7957747E-01            NaN
         13   -1    0    0    0    0  0.00000000000E+00  0.00000000000E+00  0.74505805969E-08  0.10566000000E+00  0.10566000000E+00 0.  1.
     999900   -1    0    0    0    0 -0.00000000000E+00 -0.00000000000E+00 -0.74505805969E-08  0.93827000000E+00  0.93827000000E+00 0. -1.
     999902    2    1    2    0    0  0.27154329570E-02  0.10968414349E-01  0.21122501774E-01  0.10199750471E+01  0.10196937074E+01 0.  0.
     999903    2    3    3    0    0 -0.97247655605E-01  0.77073894267E-01 -0.34069600422E-01  0.13013870160E+00  0.19438422831E-01 0.  0.
         14    1    1    2    0    0 -0.27154329570E-02 -0.10968414349E-01 -0.21122501774E-01  0.23954952947E-01  0.00000000000E+00 0. -1.
     999901    1    3    3    0    0  0.99963088562E-01 -0.66105479918E-01  0.55192102196E-01  0.88983634546E+00  0.88000000000E+00 0.  1.
        -11    1    4    4    0    0 -0.66929392547E-01  0.48994256664E-01 -0.13723788446E-01  0.84074872959E-01  0.51100000000E-03 0.  1.
         11    1    4    4    0    0 -0.30318263059E-01  0.28079637603E-01 -0.20345811977E-01  0.46063828638E-01  0.51100000000E-03 0. -1.
</event>
<event>
 8    1  0.1093753E+005  0.1043930E+01  0.7957747E-01            NaN
         13   -1    0    0    0    0  0.00000000000E+00  0.00000000000E+00  0.74505805969E-08  0.10566000000E+00  0.10566000000E+00 0. -1.
     999900   -1    0    0    0    0 -0.00000000000E+00 -0.00000000000E+00 -0.74505805969E-08  0.93827000000E+00  0.93827000000E+00 0. -1.
     999902    2    1    2    0    0 -0.12689766442E-01 -0.13582427475E-01 -0.14910585903E-01  0.10201006467E+01  0.10198222841E+01 0.  0.
     999903    2    3    3    0    0 -0.12648836409E+00 -0.27725771252E-01  0.15565579752E-01  0.13213727373E+00  0.21211958718E-01 0.  0.
         14    1    1    2    0    0  0.12689766442E-01  0.13582427475E-01  0.14910585903E-01  0.23829353337E-01  0.00000000000E+00 0.  1.
     999901    1    3    3    0    0  0.11379859765E+00  0.14143343777E-01 -0.30476165655E-01  0.88796337293E+00  0.88000000000E+00 0. -1.
        -11    1    4    4    0    0 -0.83718037234E-01 -0.28011472607E-01  0.13552068558E-01  0.89315575569E-01  0.51100000000E-03 0. -1.
         11    1    4    4    0    0 -0.42770326860E-01  0.28570135444E-03  0.20135111937E-02  0.42821698160E-01  0.51100000000E-03 0.  1.
</event>
<event>
 8    1  0.1093753E+005  0.1043930E+01  0.7957747E-01            NaN
         13   -1    0    0    0    0  0.00000000000E+00  0.00000000000E+00  0.74505805969E-08  0.10566000000E+00  0.10566000000E+00 0.  1.
     999900   -1    0    0    0    0 -0.00000000000E+00 -0.00000000000E+00 -0.74505805969E-08  0.93827000000E+00  0.93827000000E+00 0. -1.
     999902    2    1    2    0    0 -0.16768224331E-01 -0.14812370045E-01  0.81793752736E-02  0.10201081228E+01  0.10198299370E+01 0.  0.
     999903    2    3    3    0    0  0.50396049457E-01  0.11123557176E+00  0.33392989200E-01  0.12823657956E+00  0.20406233981E-01 0.  0.
         14    1    1    2    0    0  0.16768224331E-01  0.14812370045E-01 -0.81793752736E-02  0.23821877202E-01  0.00000000000E+00 0. -1.
     999901    1    3    3    0    0 -0.67164273788E-01 -0.12604794180E+00 -0.25213613926E-01  0.89187154324E+00  0.88000000000E+00 0.  1.
        -11    1    4    4    0    0  0.34055024694E-01  0.93334487738E-01  0.23808385668E-01  0.10216737081E+00  0.51100000000E-03 0. -1.
         11    1    4    4    0    0  0.16341024763E-01  0.17901084019E-01  0.95846035314E-02  0.26069208757E-01  0.51100000000E-03 0.  1.
</event>
<event>
 8    1  0.1093753E+005  0.1043930E+01  0.7957747E-01            NaN
         13   -1    0    0    0    0  0.00000000000E+00  0.00000000000E+00  0.74505805969E-08  0.10566000000E+00  0.10566000000E+00 0. -1.
     999900   -1    0    0    0    0 -0.00000000000E+00 -0.00000000000E+00 -0.74505805969E-08  0.93827000000E+00  0.93827000000E+00 0. -1.
     999902    2    1    2    0    0  0.17777187209E-01 -0.10188861511E-01 -0.11557476610E-01  0.10204051929E+01  0.10201339819E+01 0.  0.
     999903    2    3    3    0    0 -0.75272173999E-02  0.48768772014E-01  0.11704750781E+00  0.12874631335E+00  0.20986709867E-01 0.  0.
         14    1    1    2    0    0 -0.17777187209E-01  0.10188861511E-01  0.11557476610E-01  0.23524807110E-01  0.00000000000E+00 0.  1.
     999901    1    3    3    0    0  0.25304404609E-01 -0.58957633526E-01 -0.12860498442E+00  0.89165887954E+00  0.88000000000E+00 0. -1.
        -11    1    4    4    0    0 -0.13677046615E-01  0.32765377218E-01  0.66789785787E-01  0.75642370104E-01  0.51100000000E-03 0. -1.
         11    1    4    4    0    0  0.61498292154E-02  0.16003394796E-01  0.50257722023E-01  0.53103943247E-01  0.51100000000E-03 0.  1.
</event>
<event>
 8    1  0.1093753E+005  0.1043930E+01  0.7957747E-01            NaN
         13   -1    0    0    0    0  0.00000000000E+00  0.00000000000E+00  0.74505805969E-08  0.10566000000E+00  0.10566000000E+00 0.  1.
     999900   -1    0    0    0    0 -0.00000000000E+00 -0.00000000000E+00 -0.74505805969E-08  0.93827000000E+00  0.93827000000E+00 0. -1.
     999902    2    1    2    0    0 -0.10120841677E-01  0.21023683019E-01  0.32523839824E-02  0.10203714626E+01  0.10200994642E+01 0.  0.
     999903    2    3    3    0    0 -0.26912807641E-01  0.90014774368E-01  0.92090566770E-01  0.13305305100E+00  0.19886756203E-01 0.  0.
         14    1    1    2    0    0  0.10120841677E-01 -0.21023683019E-01 -0.32523839824E-02  0.23558537423E-01  0.00000000000E+00 0. -1.
     999901    1    3    3    0    0  0.16791965964E-01 -0.68991091349E-01 -0.88838182787E-01  0.88731841158E+00  0.88000000000E+00 0. -1.
        -11    1    4    4    0    0 -0.83695183040E-02  0.11360174275E-01  0.21663578336E-01  0.25858734376E-01  0.51100000000E-03 0.  1.
         11    1    4    4    0    0 -0.18543289337E-01  0.78654600093E-01  0.70426988434E-01  0.10719431662E+00  0.51100000000E-03 0. -1.
</event>
<event>
 8    1  0.1093753E+005  0.1043930E+01  0.7957747E-01            NaN
         13   -1    0    0    0    0  0.00000000000E+00  0.00000000000E+00  0.74505805969E-08  0.10566000000E+00  0.10566000000E+00 0. -1.
     999900   -1    0    0    0    0 -0.00000000000E+00 -0.00000000000E+00 -0.74505805969E-08  0.93827000000E+00  0.93827000000E+00 0.  1.
     999902    2    1    2    0    0 -0.59388711252E-02 -0.22220893657E-01  0.72339319459E-02  0.10198184244E+01  0.10195333495E+01 0.  0.
     999903    2    3    3    0    0  0.87152447635E-01  0.86446493067E-01  0.30353645239E-01  0.12796130823E+00  0.19601207438E-01 0.  0.
         14    1    1    2    0    0  0.59388711252E-02  0.22220893657E-01 -0.72339319459E-02  0.24111575571E-01  0.00000000000E+00 0.  1.
     999901    1    3    3    0    0 -0.93091318760E-01 -0.10866738672E+00 -0.23119713294E-01  0.89185711620E+00  0.88000000000E+00 0.  1.
        -11    1    4    4    0    0  0.28182420730E-01  0.34710660520E-01  0.27549841071E-02  0.44798770634E-01  0.51100000000E-03 0. -1.
         11    1    4    4    0    0  0.58970026905E-01  0.51735832547E-01  0.27598661132E-01  0.83162537599E-01  0.51100000000E-03 0.  1.
</event>
<event>
 8    1  0.1093753E+005  0.1043930E+01  0.7957747E-01            NaN
         13   -1    0    0    0    0  0.00000000000E+00  0.00000000000E+00  0.74505805969E-08  0.10566000000E+00  0.10566000000E+00 0.  1.
     999900   -1    0    0    0    0 -0.00000000000E+00 -0.00000000000E+00 -0.74505805969E-08  0.93827000000E+00  0.93827000000E+00 0. -1.
     999902    2    1    2    0    0  0.21557262221E-01  0.37665297001E-02 -0.57134595521E-02  0.10213126191E+01  0.10210621528E+01 0.  0.
     999903    2    3    3    0    0 -0.36251608486E-01  0.11900321829E+00 -0.36909354513E-01  0.13137186609E+00  0.20501747947E-01 0.  0.
         14    1    1    2    0    0 -0.21557262221E-01 -0.37665297001E-02  0.57134595521E-02  0.22617380939E-01  0.00000000000E+00 0.  1.
     999901    1    3    3    0    0  0.57808870708E-01 -0.11523668859E+00  0.31195894961E-01  0.88994075297E+00  0.88000000000E+00 0. -1.
        -11    1    4    4    0    0 -0.53639829056E-02  0.38369580667E-01 -0.19132182274E-01  0.43212250031E-01  0.51100000000E-03 0.  1.
         11    1    4    4    0    0 -0.30887625581E-01  0.80633637624E-01 -0.17777172239E-01  0.88159616063E-01  0.51100000000E-03 0. -1.
</event>
<event>
 8    1  0.1093753E+005  0.1043930E+01  0.7957747E-01            NaN
         13   -1    0    0    0    0  0.00000000000E+00  0.00000000000E+00  0.74505805969E-08  0.10566000000E+00  0.10566000000E+00 0.  1.
     999900   -1    0    0    0    0 -0.00000000000E+00 -0.00000000000E+00 -0.74505805969E-08  0.93827000000E+00  0.93827000000E+00 0.  1.
     999902    2    1    2    0    0 -0.85079982827E-02 -0.14904796962E-01 -0.14477860091E-01  0.10214767722E+01  0.10212299685E+01 0.  0.
     999903    2    3    3    0    0  0.89907981358E-01 -0.54920722529E-01 -0.78253665213E-01  0.13279553985E+00  0.20280246820E-01 0.  0.
         14    1    1    2    0    0  0.85079982827E-02  0.14904796962E-01  0.14477860091E-01  0.22453227832E-01  0.00000000000E+00 0.  1.
     999901    1    3    3    0    0 -0.98415979641E-01  0.40015925567E-01  0.63775805122E-01  0.88868123231E+00  0.88000000000E+00 0. -1.
        -11    1    4    4    0    0  0.15811465435E-01 -0.13916932075E-01 -0.72534319778E-02  0.22283555238E-01  0.51100000000E-03 0.  1.
         11    1    4    4    0    0  0.74096515923E-01 -0.41003790454E-01 -0.71000233235E-01  0.11051198462E+00  0.51100000000E-03 0. -1.
</event>
<event>
 8    1  0.1093753E+005  0.1043930E+01  0.7957747E-01            NaN
         13   -1    0    0    0    0  0.00000000000E+00  0.00000000000E+00  0.74505805969E-08  0.10566000000E+00  0.10566000000E+00 0. -1.
     999900   -1    0    0    0    0 -0.00000000000E+00 -0.00000000000E+00 -0.74505805969E-08  0.93827000000E+00  0.93827000000E+00 0.  1.
     999902    2    1    2    0    0 -0.18534251385E-01 -0.13909747985E-01  0.34832715989E-03  0.10207541312E+01  0.10204909972E+01 0.  0.
     999903    2    3    3    0    0  0.31419172136E-01  0.99594944983E-01 -0.72719523623E-01  0.12906047826E+00  0.21497918267E-01 0.  0.
         14    1    1    2    0    0  0.18534251385E-01  0.13909747985E-01 -0.34832715989E-03  0.23175868813E-01  0.00000000000E+00 0. -1.
     999901    1    3    3    0    0 -0.49953423521E-01 -0.11350469297E+00  0.73067850782E-01  0.89169365292E+00  0.88000000000E+00 0. -1.
        -11    1    4    4    0    0  0.65380922080E-02  0.52561773617E-01 -0.42149849578E-01  0.67693113652E-01  0.51100000000E-03 0. -1.
         11    1    4    4    0    0  0.24881079928E-01  0.47033171366E-01 -0.30569674045E-01  0.61367364611E-01  0.51100000000E-03 0.  1.
</event>
<event>
 8    1  0.1093753E+005  0.1043930E+01  0.7957747E-01            NaN
         13   -1    0    0    0    0  0.00000000000E+00  0.00000000000E+00  0.74505805969E-08  0.10566000000E+00  0.10566000000E+00 0. -1.
     999900   -1    0    0    0    0 -0.00000000000E+00 -0.00000000000E+00 -0.74505805969E-08  0.93827000000E+00  0.93827000000E+00 0.  1.
     999902    2    1    2    0    0 -0.23908495874E-01  0.52496055826E-02  0.23616671126E-03  0.10194508189E+01  0.10191568779E+01 0.  0.
     999903    2    3    3    0    0  0.11264665873E+00 -0.35340091399E-01 -0.41980673992E-01  0.12699516430E+00  0.20668889264E-01 0.  0.
         14    1    1    2    0    0  0.23908495874E-01 -0.52496055826E-02 -0.23616671126E-03  0.24479181122E-01  0.00000000000E+00 0.  1.
     999901    1    3    3    0    0 -0.13655515460E+00  0.40589696982E-01  0.42216840703E-01  0.89245565458E+00  0.88000000000E+00 0. -1.
        -11    1    4    4    0    0  0.56221749493E-01 -0.21907067995E-01 -0.31441292414E-01  0.68041316373E-01  0.51100000000E-03 0. -1.
         11    1    4    4    0    0  0.56424909238E-01 -0.13433023404E-01 -0.10539381578E-01  0.58953847926E-01  0.51100000000E-03 0.  1.
</event>
<event>
 8    1  0.1093753E+005  0.1043930E+01  0.7957747E-01            NaN
         13   -1    0    0    0    0  0.00000000000E+00  0.00000000000E+00  0.74505805969E-08  0.10566000000E+00  0.10566000000E+00 0. -1.
     999900   -1    0    0    0    0 -0.00000000000E+00 -0.00000000000E+00 -0.74505805969E-08  0.93827000000E+00  0.93827000000E+00 0.  1.
     999902    2    1    2    0    0  0.80178659492E-02  0.21220185449E-01 -0.40971015917E-02  0.10208785643E+01  0.10206182805E+01 0.  0.
     999903    2    3    3    0    0 -0.95211325163E-02  0.96042995989E-01  0.88804206912E-01  0.13265746429E+00  0.19922515476E-01 0.  0.
         14    1    1    2    0    0 -0.80178659492E-02 -0.21220185449E-01  0.40971015917E-02  0.23051435667E-01  0.00000000000E+00 0. -1.
     999901    1    3    3    0    0  0.17538998465E-01 -0.74822810541E-01 -0.92901308504E-01  0.88822110005E+00  0.88000000000E+00 0.  1.
        -11    1    4    4    0    0  0.18316071342E-02  0.54964989655E-01  0.58943421651E-01  0.80616951997E-01  0.51100000000E-03 0. -1.
         11    1    4    4    0    0 -0.11352739650E-01  0.41078006335E-01  0.29860785261E-01  0.52040512290E-01  0.51100000000E-03 0.  1.
</event>
<event>
 8    1  0.1093753E+005  0.1043930E+01  0.7957747E-01            NaN
         13   -1    0    0    0    0  0.00000000000E+00  0.00000000000E+00  0.74505805969E-08  0.10566000000E+00  0.10566000000E+00 0.  1.
     999900   -1    0    0    0    0 -0.00000000000E+00 -0.00000000000E+00 -0.74505805969E-08  0.93827000000E+00  0.93827000000E+00 0. -1.
     999902    2    1    2    0    0 -0.95387079646E-02  0.14939603937E-01 -0.14843067049E-01  0.10208108444E+01  0.10205490114E+01 0.  0.
     999903    2    3    3    0    0  0.10119510905E+00  0.22918254551E-01  0.74550926944E-01  0.12934187510E+00  0.20144067554E-01 0.  0.
         14    1    1    2    0    0  0.95387079646E-02 -0.14939603937E-01  0.14843067049E-01  0.23119155582E-01  0.00000000000E+00 0.  1.
     999901    1    3    3    0    0 -0.11073381702E+00 -0.79786506139E-02 -0.89393993993E-01  0.89146896932E+00  0.88000000000E+00 0. -1.
        -11    1    4    4    0    0  0.46503598020E-01  0.20488484190E-01  0.39069558291E-01  0.64101904177E-01  0.51100000000E-03 0.  1.
         11    1    4    4    0    0  0.54691511034E-01  0.24297703616E-02  0.35481368654E-01  0.65239970921E-01  0.51100000000E-03 0. -1.
</event>
<event>
 8    1  0.1093753E+005  0.1043930E+01  0.7957747E-01            NaN
         13   -1    0    0    0    0  0.00000000000E+00  0.00000000000E+00  0.74505805969E-08  0.10566000000E+00  0.10566000000E+00 0. -1.
     999900   -1    0    0    0    0 -0.00000000000E+00 -0.00000000000E+00 -0.74505805969E-08  0.93827000000E+00  0.93827000000E+00 0. -1.
     999902    2    1    2    0    0  0.13867292484E-01 -0.15821604305E-01  0.12013802112E-01  0.10197028168E+01  0.10194149686E+01 0.  0.
     999903    2    3    3    0    0 -0.92389252755E-01  0.18279727527E-01 -0.80078962387E-01  0.12788757165E+00  0.32751615280E-01 0.  0.
         14    1    1    2    0    0 -0.13867292484E-01  0.15821604305E-01 -0.12013802112E-01  0.24227183180E-01  0.00000000000E+00 0. -1.
     999901    1    3    3    0    0  0.10625654524E+00 -0.34101331832E-01  0.92092764499E-01  0.89181524517E+00  0.88000000000E+00 0.  1.
        -11    1    4    4    0    0 -0.43884177931E-01  0.24645372433E-01 -0.34500521017E-01  0.61022639458E-01  0.51100000000E-03 0. -1.
         11    1    4    4    0    0 -0.48505074824E-01 -0.63656449060E-02 -0.45578441370E-01  0.66864932195E-01  0.51100000000E-03 0.  1.
</event>
<event>
 8    1  0.1093753E+005  0.1043930E+01  0.7957747E-01            NaN
         13   -1    0    0    0    0  0.00000000000E+00  0.00000000000E+00  0.74505805969E-08  0.10566000000E+00  0.10566000000E+00 0.  1.
     999900   -1    0    0    0    0 -0.00000000000E+00 -0.00000000000E+00 -0.74505805969E-08  0.93827000000E+00  0.93827000000E+00 0.  1.
     999902    2    1    2    0    0  0.12662377604E-02  0.19007616303E-02 -0.23271119572E-01  0.10205470733E+01  0.10202791616E+01 0.  0.
     999903    2    3    3    0    0  0.80017723434E-01  0.97742889029E-01  0.26346310975E-01  0.13046314511E+00  0.19235272596E-01 0.  0.
         14    1    1    2    0    0 -0.12662377604E-02 -0.19007616303E-02  0.23271119572E-01  0.23382926655E-01  0.00000000000E+00 0.  1.
     999901    1    3    3    0    0 -0.78751485673E-01 -0.95842127399E-01 -0.49617430547E-01  0.89008392823E+00  0.88000000000E+00 0. -1.
        -11    1    4    4    0    0  0.19900335299E-01  0.14670796279E-01  0.97642199927E-02  0.26586777194E-01  0.51100000000E-03 0. -1.
         11    1    4    4    0    0  0.60117388134E-01  0.83072092750E-01  0.16582090983E-01  0.10387636792E+00  0.51100000000E-03 0.  1.
</event>
<event>
 8    1  0.1093753E+005  0.1043930E+01  0.7957747E-01            NaN
         13   -1    0    0    0    0  0.00000000000E+00  0.00000000000E+00  0.74505805969E-08  0.10566000000E+00  0.10566000000E+00 0. -1.
     999900   -1    0    0    0    0 -0.00000000000E+00 -0.00000000000E+00 -0.74505805969E-08  0.93827000000E+00  0.93827000000E+00 0. -1.
     999902    2    1    2    0    0  0.57816671586E-02 -0.66009435082E-02  0.20189311260E-01  0.10219161766E+01  0.10216790414E+01 0.  0.
     999903    2    3    3    0    0 -0.97936396317E-01 -0.79070205330E-01  0.36681821533E-01  0.13271359369E+00  0.20584140150E-01 0.  0.
         14    1    1    2    0    0 -0.57816671586E-02  0.66009435082E-02 -0.20189311260E-01  0.22013823373E-01  0.00000000000E+00 0.  1.
     999901    1    3    3    0    0  0.10371806348E+00  0.72469261822E-01 -0.16492510273E-01  0.88920258293E+00  0.88000000000E+00 0.  1.
        -11    1    4    4    0    0 -0.42600662429E-01 -0.21703600303E-01  0.14972800725E-01  0.50102979832E-01  0.51100000000E-03 0. -1.
         11    1    4    4    0    0 -0.55335733889E-01 -0.57366605027E-01  0.21709020808E-01  0.82610613862E-01  0.51100000000E-03 0.  1.
</event>
<event>
 8    1  0.1093753E+005  0.1043930E+01  0.7957747E-01            NaN
         13   -1    0    0    0    0  0.00000000000E+00  0.00000000000E+00  0.74505805969E-08  0.10566000000E+00  0.10566000000E+00 0.  1.
     999900   -1    0    0    0    0 -0.00000000000E+00 -0.00000000000E+00 -0.74505805969E-08  0.93827000000E+00  0.93827000000E+00 0. -1.
     999902    2    1    2    0    0 -0.21195983617E-01 -0.84233240666E-02 -0.56278585262E-02  0.10204375565E+01  0.10201671000E+01 0.  0.
     999903    2    3    3    0    0  0.11182533675E+00  0.55435212490E-01  0.40755314690E-02  0.12809976164E+00  0.28547683823E-01 0.  0.
         14    1    1    2    0    0  0.21195983617E-01  0.84233240666E-02  0.56278585262E-02  0.23492443496E-01  0.00000000000E+00 0.  1.
     999901    1    3    3    0    0 -0.13302132037E+00 -0.63858536557E-01 -0.97033899952E-02  0.89233779486E+00  0.88000000000E+00 0.  1.
        -11    1    4    4    0    0  0.86219130980E-01  0.38762998484E-01  0.14857181860E-01  0.95693811567E-01  0.51100000000E-03 0.  1.
         11    1    4    4    0    0  0.25606205774E-01  0.16672214006E-01 -0.10781650391E-01  0.32405950073E-01  0.51100000000E-03 0. -1.
</event>
<event>
 8    1  0.1093753E+005  0.1043930E+01  0.7957747E-01            NaN
         13   -1    0    0    0    0  0.00000000000E+00  0.00000000000E+00  0.74505805969E-08  0.10566000000E+00  0.10566000000E+00 0. -1.
     999900   -1    0    0    0    0 -0.00000000000E+00 -0.00000000000E+00 -0.74505805969E-08  0.93827000000E+00  0.93827000000E+00 0. -1.
     999902    2    1    2    0    0 -0.73631032699E-02 -0.13567108942E-02  0.22237569413E-01  0.10204658689E+01  0.10201960714E+01 0.  0.
     999903    2    3    3    0    0 -0.10383574809E+00  0.49537313132E-01  0.64490525190E-01  0.13272576891E+00  0.14875951047E-01 0.  0.
         14    1    1    2    0    0  0.73631032699E-02  0.13567108942E-02 -0.22237569413E-01  0.23464131086E-01  0.00000000000E+00 0.  1.
     999901    1    3    3    0    0  0.96472644823E-01 -0.50894024027E-01 -0.42252955776E-01  0.88774010000E+00  0.88000000000E+00 0. -1.
        -11    1    4    4    0    0 -0.24171253628E-01  0.64141354483E-02  0.18640402248E-01  0.31194812909E-01  0.51100000000E-03 0. -1.
         11    1    4    4    0    0 -0.79664494465E-01  0.43123177684E-01  0.45850122942E-01  0.10153095600E+00  0.51100000000E-03 0.  1.
</event>
<event>
 8    1  0.1093753E+005  0.1043930E+01  0.7957747E-01            NaN
         13   -1    0    0    0    0  0.00000000000E+00  0.00000000000E+00  0.74505805969E-08  0.10566000000E+00  0.10566000000E+00 0.  1.
     999900   -1    0    0    0    0 -0.00000000000E+00 -0.00000000000E+00 -0.74505805969E-08  0.93827000000E+00  0.93827000000E+00 0.  1.
     999902    2    1    2    0    0  0.13528783658E-01  0.79233162519E-02  0.18082404970E-01  0.10199971711E+01  0.10197163571E+01 0.  0.
     999903    2    3    3    0    0 -0.44363418124E-01 -0.11502309570E+00  0.33620161231E-01  0.12943063847E+00  0.20580318794E-01 0.  0.
         14    1    1    2    0    0 -0.13528783658E-01 -0.79233162519E-02 -0.18082404970E-01  0.23932828859E-01  0.00000000000E+00 0. -1.
     999901    1    3    3    0    0  0.57892201782E-01  0.12294641195E+00 -0.15537756262E-01  0.89056653267E+00  0.88000000000E+00 0. -1.
        -11    1    4    4    0    0 -0.16566885952E-01 -0.55672508656E-01  0.25326618255E-01  0.63368672414E-01  0.51100000000E-03 0. -1.
         11    1    4    4    0    0 -0.27796532172E-01 -0.59350587046E-01  0.82935429763E-02  0.66061966059E-01  0.51100000000E-03 0.  1.
</event>
<event>
 8    1  0.1093753E+005  0.1043930E+01  0.7957747E-01            NaN
         13   -1    0    0    0    0  0.00000000000E+00  0.00000000000E+00  0.74505805969E-08  0.10566000000E+00  0.10566000000E+00 0. -1.
     999900   -1    0    0    0    0 -0.00000000000E+00 -0.00000000000E+00 -0.74505805969E-08  0.93827000000E+00  0.93827000000E+00 0. -1.
     999902    2    1    2    0    0 -0.15134268406E-01 -0.14141736254E-01 -0.13136536585E-01  0.10194023956E+01  0.10191072764E+01 0.  0.
     999903    2    3    3    0    0 -0.21131522411E-01 -0.10179939842E+00  0.76340332499E-01  0.13051210827E+00  0.19897368739E-01 0.  0.
         14    1    1    2    0    0  0.15134268406E-01  0.14141736254E-01  0.13136536585E-01  0.24527604406E-01  0.00000000000E+00 0. -1.
     999901    1    3    3    0    0  0.59972540053E-02  0.87657662162E-01 -0.89476869083E-01  0.88889028732E+00  0.88000000000E+00 0. -1.
        -11    1    4    4    0    0  0.10769684508E-02 -0.40789451545E-01  0.26443723254E-01  0.48625824815E-01  0.51100000000E-03 0.  1.
         11    1    4    4    0    0 -0.22208490862E-01 -0.61009946871E-01  0.49896609244E-01  0.81886283459E-01  0.51100000000E-03 0. -1.
</event>
<event>
 8    1  0.1093753E+005  0.1043930E+01  0.7957747E-01            NaN
         13   -1    0    0    0    0  0.00000000000E+00  0.00000000000E+00  0.74505805969E-08  0.10566000000E+00  0.10566000000E+00 0. -1.
     999900   -1    0    0    0    0 -0.00000000000E+00 -0.00000000000E+00 -0.74505805969E-08  0.93827000000E+00  0.93827000000E+00 0. -1.
     999902    2    1    2    0    0  0.11360328344E-01 -0.22347979507E-01  0.71437501194E-03  0.10188501360E+01  0.10185414081E+01 0.  0.
     999903    2    3    3    0    0  0.12915585394E+00 -0.64742453801E-02  0.16236878911E-02  0.13085881386E+00  0.19956010224E-01 0.  0.
         14    1    1    2    0    0 -0.11360328344E-01  0.22347979507E-01 -0.71437501194E-03  0.25079864031E-01  0.00000000000E+00 0.  1.
     999901    1    3    3    0    0 -0.11779552559E+00 -0.15873734127E-01 -0.90931287914E-03  0.88799132211E+00  0.88000000000E+00 0. -1.
        -11    1    4    4    0    0  0.65654650351E-01  0.56892187276E-02 -0.35220222820E-02  0.65996712679E-01  0.51100000000E-03 0. -1.
         11    1    4    4    0    0  0.63501203586E-01 -0.12163464108E-01  0.51457101731E-02  0.64862101185E-01  0.51100000000E-03 0.  1.
</event>
<event>
 8    1  0.1093753E+005  0.1043930E+01  0.7957747E-01            NaN
         13   -1    0    0    0    0  0.00000000000E+00  0.00000000000E+00  0.74505805969E-08  0.10566000000E+00  0.10566000000E+00 0. -1.
     999900   -1    0    0    0    0 -0.00000000000E+00 -0.00000000000E+00 -0.74505805969E-08  0.93827000000E+00  0.93827000000E+00 0. -1.
     999902    2    1    2    0    0 -0.17309204452E-01  0.12236193304E-01  0.11840049988E-01  0.10196499718E+01  0.10193608513E+01 0.  0.
     999903    2    3    3    0    0  0.87105115586E-01 -0.79613184791E-01 -0.42686918460E-01  0.12706280588E+00  0.19930461042E-01 0.  0.
         14    1    1    2    0    0  0.17309204452E-01 -0.12236193304E-01 -0.11840049988E-01  0.24280028193E-01  0.00000000000E+00 0.  1.
     999901    1    3    3    0    0 -0.10441432004E+00  0.91849378095E-01  0.54526968447E-01  0.89258716592E+00  0.88000000000E+00 0.  1.
        -11    1    4    4    0    0  0.59839069016E-01 -0.59790298720E-01 -0.38993544901E-01  0.93146935895E-01  0.51100000000E-03 0. -1.
         11    1    4    4    0    0  0.27266046570E-01 -0.19822886071E-01 -0.36933735583E-02  0.33915869987E-01  0.51100000000E-03 0.  1.
</event>
<event>
 8    1  0.1093753E+005  0.1043930E+01  0.7957747E-01            NaN
         13   -1    0    0    0    0  0.00000000000E+00  0.00000000000E+00  0.74505805969E-08  0.10566000000E+00  0.10566000000E+00 0.  1.
     999900   -1    0    0    0    0 -0.00000000000E+00 -0.00000000000E+00 -0.74505805969E-08  0.93827000000E+00  0.93827000000E+00 0. -1.
     999902    2    1    2    0    0  0.14832951655E-01 -0.11758569118E-01  0.13420844785E-01  0.10207265632E+01  0.10204627957E+01 0.  0.
     999903    2    3    3    0    0  0.56908873505E-01 -0.47015674995E-01 -0.10628123254E+00  0.13092769045E+00  0.19931536761E-01 0.  0.
         14    1    1    2    0    0 -0.14832951655E-01  0.11758569118E-01 -0.13420844785E-01  0.23203436755E-01  0.00000000000E+00 0. -1.
     999901    1    3    3    0    0 -0.42075921850E-01  0.35257105877E-01  0.11970207732E+00  0.88979887280E+00  0.88000000000E+00 0.  1.
        -11    1    4    4    0    0  0.28989690933E-01 -0.35972492604E-01 -0.59382048416E-01  0.75239027104E-01  0.51100000000E-03 0.  1.
         11    1    4    4    0    0  0.27919182572E-01 -0.11043182391E-01 -0.46899184121E-01  0.55688663344E-01  0.51100000000E-03 0. -1.
</event>
<event>
 8    1  0.1093753E+005  0.1043930E+01  0.7957747E-01            NaN
         13   -1    0    0    0    0  0.00000000000E+00  0.00000000000E+00  0.74505805969E-08  0.10566000000E+00  0.10566000000E+00 0.  1.
     999900   -1    0    0    0    0 -0.00000000000E+00 -0.00000000000E+00 -0.74505805969E-08  0.93827000000E+00  0.93827000000E+00 0. -1.
     999902    2    1    2    0    0  0.18221133063E-02 -0.20677075917E-01  0.11763896604E-01  0.10200710221E+01  0.10197919588E+01 0.  0.
     999903    2    3    3    0    0 -0.97046463999E-01  0.65756114974E-01  0.51451224560E-01  0.12944159515E+00  0.19131524116E-01 0.  0.
         14    1    1    2    0    0 -0.18221133063E-02  0.20677075917E-01 -0.11763896604E-01  0.23858977947E-01  0.00000000000E+00 0.  1.
     999901    1    3    3    0    0  0.98868577305E-01 -0.86433190891E-01 -0.39687327956E-01  0.89062942690E+00  0.88000000000E+00 0. -1.
        -11    1    4    4    0    0 -0.45009000611E-01  0.41944108637E-01  0.25407472902E-01  0.66565149933E-01  0.51100000000E-03 0.  1.
         11    1    4    4    0    0 -0.52037463388E-01  0.23812006337E-01  0.26043751658E-01  0.62876445216E-01  0.51100000000E-03 0. -1.
</event>
<event>
 8    1  0.1093753E+005  0.1043930E+01  0.7957747E-01            NaN
         13   -1    0    0    0    0  0.00000000000E+00  0.00000000000E+00  0.74505805969E-08  0.10566000000E+00  0.10566000000E+00 0. -1.
     999900   -1    0    0    0    0 -0.00000000000E+00 -0.00000000000E+00 -0.74505805969E-08  0.93827000000E+00  0.93827000000E+00 0. -1.
     999902    2    1    2    0    0 -0.98107566580E-04 -0.18791296909E-01  0.14022534267E-01  0.10204831680E+01  0.10202137728E+01 0.  0.
     999903    2    3    3    0    0 -0.86989724536E-03 -0.12401899629E+00 -0.40442296470E-01  0.13254179482E+00  0.23458044865E-01 0.  0.
         14    1    1    2    0    0  0.98107566580E-04  0.18791296909E-01 -0.14022534267E-01  0.23446832022E-01  0.00000000000E+00 0.  1.
     999901    1    3    3    0    0  0.77178967878E-03  0.10522769938E+00  0.54464830737E-01  0.88794137316E+00  0.88000000000E+00 0.  1.
        -11    1    4    4    0    0  0.10004674213E-01 -0.64847298209E-01 -0.26612989643E-01  0.70808035772E-01  0.51100000000E-03 0.  1.
         11    1    4    4    0    0 -0.10874571458E-01 -0.59171698080E-01 -0.13829306827E-01  0.61733759049E-01  0.51100000000E-03 0. -1.
</event>
<event>
 8    1  0.1093753E+005  0.1043930E+01  0.7957747E-01            NaN
         13   -1    0    0    0    0  0.00000000000E+00  0.00000000000E+00  0.74505805969E-08  0.10566000000E+00  0.10566000000E+00 0.  1.
     999900   -1    0    0    0    0 -0.00000000000E+00 -0.00000000000E+00 -0.74505805969E-08  0.93827000000E+00  0.93827000000E+00 0.  1.
     999902    2    1    2    0    0  0.18193388650E-02  0.15622973543E-01 -0.60580783249E-02  0.10270751013E+01  0.10269367927E+01 0.  0.
     999903    2    3    3    0    0  0.59099495059E-02  0.13664618463E+00 -0.12471985149E-01  0.13875956678E+00  0.19787867043E-01 0.  0.
         14    1    1    2    0    0 -0.18193388650E-02 -0.15622973543E-01  0.60580783249E-02  0.16854898672E-01  0.00000000000E+00 0.  1.
     999901    1    3    3    0    0 -0.40906106408E-02 -0.12102321109E+00  0.64139068240E-02  0.88831553455E+00  0.88000000000E+00 0. -1.
        -11    1    4    4    0    0  0.11757484660E-01  0.71136473766E-01 -0.17897630411E-02  0.72125589898E-01  0.51100000000E-03 0. -1.
         11    1    4    4    0    0 -0.58475351538E-02  0.65509710865E-01 -0.10682222108E-01  0.66633976883E-01  0.51100000000E-03 0.  1.
</event>
<event>
 8    1  0.1093753E+005  0.1043930E+01  0.7957747E-01            NaN
         13   -1    0    0    0    0  0.00000000000E+00  0.00000000000E+00  0.74505805969E-08  0.10566000000E+00  0.10566000000E+00 0.  1.
     999900   -1    0    0    0    0 -0.00000000000E+00 -0.00000000000E+00 -0.74505805969E-08  0.93827000000E+00  0.93827000000E+00 0.  1.
     999902    2    1    2    0    0  0.58825050590E-02 -0.79157488327E-02  0.21388703174E-01  0.10203770900E+01  0.10201052231E+01 0.  0.
     999903    2    3    3    0    0  0.76224274190E-01  0.63956243101E-01 -0.79573572366E-01  0.12891372633E+00  0.19653356194E-01 0.  0.
         14    1    1    2    0    0 -0.58825050590E-02  0.79157488327E-02 -0.21388703174E-01  0.23552909986E-01  0.00000000000E+00 0. -1.
     999901    1    3    3    0    0 -0.70341769131E-01 -0.71871991934E-01  0.10096227554E+00  0.89146336368E+00  0.88000000000E+00 0. -1.
        -11    1    4    4    0    0  0.56916156727E-01  0.57451883027E-01 -0.60480403685E-01  0.10098667294E+00  0.51100000000E-03 0. -1.
         11    1    4    4    0    0  0.19308117463E-01  0.65043600745E-02 -0.19093168681E-01  0.27927053393E-01  0.51100000000E-03 0.  1.
</event>
<event>
 8    1  0.1093753E+005  0.1043930E+01  0.7957747E-01            NaN
         13   -1    0    0    0    0  0.00000000000E+00  0.00000000000E+00  0.74505805969E-08  0.10566000000E+00  0.10566000000E+00 0.  1.
     999900   -1    0    0    0    0 -0.00000000000E+00 -0.00000000000E+00 -0.74505805969E-08  0.93827000000E+00  0.93827000000E+00 0.  1.
     999902    2    1    2    0    0  0.22236598461E-01  0.80197473250E-02 -0.89121411460E-03  0.10202746217E+01  0.10200003563E+01 0.  0.
     999903    2    3    3    0    0 -0.40993693548E-01  0.73662695180E-01 -0.97313288125E-01  0.13032839707E+00  0.20222251768E-01 0.  0.
         14    1    1    2    0    0 -0.22236598461E-01 -0.80197473250E-02  0.89121411460E-03  0.23655378265E-01  0.00000000000E+00 0. -1.
     999901    1    3    3    0    0  0.63230292008E-01 -0.65642947855E-01  0.96422074010E-01  0.88994622466E+00  0.88000000000E+00 0. -1.
        -11    1    4    4    0    0 -0.30783434686E-01  0.47218424503E-01 -0.50945173768E-01  0.75979413757E-01  0.51100000000E-03 0.  1.
         11    1    4    4    0    0 -0.10210258861E-01  0.26444270677E-01 -0.46368114357E-01  0.54348983318E-01  0.51100000000E-03 0. -1.
</event>
<event>
 8    1  0.1093753E+005  0.1043930E+01  0.7957747E-01            NaN
         13   -1    0    0    0    0  0.00000000000E+00  0.00000000000E+00  0.74505805969E-08  0.10566000000E+00  0.10566000000E+00 0. -1.
     999900   -1    0    0    0    0 -0.00000000000E+00 -0.00000000000E+00 -0.74505805969E-08  0.93827000000E+00  0.93827000000E+00 0.  1.
     999902    2    1    2    0    0 -0.12171196279E-01 -0.18829952490E-01  0.50103044800E-02  0.10209559215E+01  0.10206974015E+01 0.  0.
     999903    2    3    3    0    0 -0.34387108053E-01 -0.10378645123E+00 -0.74025524839E-01  0.13306076122E+00  0.16470798141E-01 0.  0.
         14    1    1    2    0    0  0.12171196279E-01  0.18829952490E-01 -0.50103044800E-02  0.22974078450E-01  0.00000000000E+00 0.  1.
     999901    1    3    3    0    0  0.22215911774E-01  0.84956498736E-01  0.79035829319E-01  0.88789516033E+00  0.88000000000E+00 0. -1.
        -11    1    4    4    0    0 -0.29611845947E-01 -0.66348396710E-01 -0.52133309197E-01  0.89426585617E-01  0.51100000000E-03 0.  1.
         11    1    4    4    0    0 -0.47752621065E-02 -0.37438054516E-01 -0.21892215643E-01  0.43634175607E-01  0.51100000000E-03 0. -1.
</event>
<event>
 8    1  0.1093753E+005  0.1043930E+01  0.7957747E-01            NaN
         13   -1    0    0    0    0  0.00000000000E+00  0.00000000000E+00  0.74505805969E-08  0.10566000000E+00  0.10566000000E+00 0.  1.
     999900   -1    0    0    0    0 -0.00000000000E+00 -0.00000000000E+00 -0.74505805969E-08  0.93827000000E+00  0.93827000000E+00 0. -1.
     999902    2    1    2    0    0 -0.22716786182E-01 -0.14165588618E-01  0.14463481018E-02  0.10171194014E+01  0.10167659851E+01 0.  0.
     999903    2    3    3    0    0  0.61693718668E-02 -0.81517305651E-01 -0.97712554631E-01  0.12852323219E+00  0.16951271640E-01 0.  0.
         14    1    1    2    0    0  0.22716786182E-01  0.14165588618E-01 -0.14463481018E-02  0.26810598616E-01  0.00000000000E+00 0.  1.
     999901    1    3    3    0    0 -0.28886158049E-01  0.67351717033E-01  0.99158902733E-01  0.88859616919E+00  0.88000000000E+00 0.  1.
        -11    1    4    4    0    0  0.88983989160E-02 -0.33789014991E-01 -0.49804713142E-01  0.60841183498E-01  0.51100000000E-03 0. -1.
         11    1    4    4    0    0 -0.27290270491E-02 -0.47728290660E-01 -0.47907841489E-01  0.67682048692E-01  0.51100000000E-03 0.  1.
</event>
<event>
 8    1  0.1093753E+005  0.1043930E+01  0.7957747E-01            NaN
         13   -1    0    0    0    0  0.00000000000E+00  0.00000000000E+00  0.74505805969E-08  0.10566000000E+00  0.10566000000E+00 0.  1.
     999900   -1    0    0    0    0 -0.00000000000E+00 -0.00000000000E+00 -0.74505805969E-08  0.93827000000E+00  0.93827000000E+00 0.  1.
     999902    2    1    2    0    0  0.20373989277E-01  0.11977280723E-01  0.61655955797E-03  0.10202881972E+01  0.10200142502E+01 0.  0.
     999903    2    3    3    0    0  0.26118240610E-01 -0.91264247047E-01 -0.86521168722E-01  0.12995972236E+00  0.19806350400E-01 0.  0.
         14    1    1    2    0    0 -0.20373989277E-01 -0.11977280723E-01 -0.61655955797E-03  0.23641802771E-01  0.00000000000E+00 0.  1.
     999901    1    3    3    0    0 -0.57442513324E-02  0.10324152777E+00  0.87137728280E-01  0.89032847487E+00  0.88000000000E+00 0. -1.
        -11    1    4    4    0    0  0.85104805308E-02 -0.44268317296E-01 -0.53125122891E-01  0.69675332782E-01  0.51100000000E-03 0. -1.
         11    1    4    4    0    0  0.17607760079E-01 -0.46995929751E-01 -0.33396045831E-01  0.60284389574E-01  0.51100000000E-03 0.  1.
</event>
<event>
 8    1  0.1093753E+005  0.1043930E+01  0.7957747E-01            NaN
         13   -1    0    0    0    0  0.00000000000E+00  0.00000000000E+00  0.74505805969E-08  0.10566000000E+00  0.10566000000E+00 0. -1.
     999900   -1    0    0    0    0 -0.00000000000E+00 -0.00000000000E+00 -0.74505805969E-08  0.93827000000E+00  0.93827000000E+00 0. -1.
     999902    2    1    2    0    0  0.20580363044E-01  0.69181347959E-02  0.63331779637E-02  0.10213131683E+01  0.10210627144E+01 0.  0.
     999903    2    3    3    0    0  0.11388920261E+00 -0.19118131008E-01  0.65206010399E-01  0.13404182478E+00  0.19471353117E-01 0.  0.
         14    1    1    2    0    0 -0.20580363044E-01 -0.69181347959E-02 -0.63331779637E-02  0.22616831679E-01  0.00000000000E+00 0.  1.
     999901    1    3    3    0    0 -0.93308839567E-01  0.26036265803E-01 -0.58872832436E-01  0.88727134355E+00  0.88000000000E+00 0. -1.
        -11    1    4    4    0    0  0.47483726476E-01  0.16821411652E-02  0.27211441172E-01  0.54756346944E-01  0.51100000000E-03 0.  1.
         11    1    4    4    0    0  0.66405476135E-01 -0.20800272173E-01  0.37994569228E-01  0.79285477832E-01  0.51100000000E-03 0. -1.
</event>
<event>
 8    1  0.1124095E+005  0.1043930E+01  0.7957747E-01            NaN
         13   -1    0    0    0    0  0.00000000000E+00  0.00000000000E+00  0.74505805969E-08  0.10566000000E+00  0.10566000000E+00 0.  1.
     999900   -1    0    0    0    0 -0.00000000000E+00 -0.00000000000E+00 -0.74505805969E-08  0.93827000000E+00  0.93827000000E+00 0.  1.
     999902    2    1    2    0    0 -0.21576473866E-01 -0.90722278549E-02 -0.61624455566E-03  0.10205157031E+01  0.10202470637E+01 0.  0.
     999903    2    3    3    0    0  0.52830421743E-01  0.24709177283E-01  0.11370890845E+00  0.12936599060E+00  0.20105888655E-01 0.  0.
         14    1    1    2    0    0  0.21576473866E-01  0.90722278549E-02  0.61624455566E-03  0.23414296917E-01  0.00000000000E+00 0. -1.
     999901    1    3    3    0    0 -0.74406895610E-01 -0.33781405138E-01 -0.11432515301E+00  0.89114971248E+00  0.88000000000E+00 0.  1.
        -11    1    4    4    0    0  0.22178653079E-01 -0.20594623413E-03  0.40375108984E-01  0.46068922418E-01  0.51100000000E-03 0. -1.
         11    1    4    4    0    0  0.30651768664E-01  0.24915123517E-01  0.73333799470E-01  0.83297068183E-01  0.51100000000E-03 0.  1.
</event>
<event>
 8    1  0.1093753E+005  0.1043930E+01  0.7957747E-01            NaN
         13   -1    0    0    0    0  0.00000000000E+00  0.00000000000E+00  0.74505805969E-08  0.10566000000E+00  0.10566000000E+00 0.  1.
     999900   -1    0    0    0    0 -0.00000000000E+00 -0.00000000000E+00 -0.74505805969E-08  0.93827000000E+00  0.93827000000E+00 0. -1.
     999902    2    1    2    0    0  0.52880906304E-02 -0.21273266926E-01 -0.76075816405E-02  0.10207267441E+01  0.10204629807E+01 0.  0.
     999903    2    3    3    0    0 -0.55422860793E-01 -0.11905354509E+00 -0.10907304877E-01  0.13322593245E+00  0.19614782189E-01 0.  0.
         14    1    1    2    0    0 -0.52880906304E-02  0.21273266926E-01  0.76075816405E-02  0.23203255949E-01  0.00000000000E+00 0.  1.
     999901    1    3    3    0    0  0.60710951424E-01  0.97780278164E-01  0.32997232369E-02  0.88750081160E+00  0.88000000000E+00 0. -1.
        -11    1    4    4    0    0 -0.12220424471E-01 -0.18137247241E-01  0.46157330582E-02  0.22357652479E-01  0.51100000000E-03 0. -1.
         11    1    4    4    0    0 -0.43202436322E-01 -0.10091629785E+00 -0.15523037936E-01  0.11086827997E+00  0.51100000000E-03 0.  1.
</event>
<event>
 8    1  0.1093753E+005  0.1043930E+01  0.7957747E-01            NaN
         13   -1    0    0    0    0  0.00000000000E+00  0.00000000000E+00  0.74505805969E-08  0.10566000000E+00  0.10566000000E+00 0.  1.
     999900   -1    0    0    0    0 -0.00000000000E+00 -0.00000000000E+00 -0.74505805969E-08  0.93827000000E+00  0.93827000000E+00 0. -1.
     999902    2    1    2    0    0  0.16715376954E-01  0.13518251708E-01 -0.11241519168E-01  0.10196705954E+01  0.10193819718E+01 0.  0.
     999903    2    3    3    0    0  0.81239386271E-01  0.10170411190E+00 -0.17945837994E-01  0.13288705838E+00  0.19833126960E-01 0.  0.
         14    1    1    2    0    0 -0.16715376954E-01 -0.13518251708E-01  0.11241519168E-01  0.24259404551E-01  0.00000000000E+00 0. -1.
     999901    1    3    3    0    0 -0.64524009317E-01 -0.88185860196E-01  0.67043188256E-02  0.88678353706E+00  0.88000000000E+00 0. -1.
        -11    1    4    4    0    0  0.31623999163E-01  0.32649886891E-01 -0.14767438220E-01  0.47795719365E-01  0.51100000000E-03 0.  1.
         11    1    4    4    0    0  0.49615387109E-01  0.69054225012E-01 -0.31783997732E-02  0.85091339019E-01  0.51100000000E-03 0. -1.
</event>
<event>
 8    1  0.1093753E+005  0.1043930E+01  0.7957747E-01            NaN
         13   -1    0    0    0    0  0.00000000000E+00  0.00000000000E+00  0.74505805969E-08  0.10566000000E+00  0.10566000000E+00 0.  1.
     999900   -1    0    0    0    0 -0.00000000000E+00 -0.00000000000E+00 -0.74505805969E-08  0.93827000000E+00  0.93827000000E+00 0.  1.
     999902    2    1    2    0    0 -0.32891535261E-02  0.20008082190E-01  0.11951646678E-01  0.10203931408E+01  0.10201216486E+01 0.  0.
     999903    2    3    3    0    0  0.38626750410E-01  0.57070216216E-03 -0.12143332021E+00  0.12914328572E+00  0.20966292957E-01 0.  0.
         14    1    1    2    0    0  0.32891535261E-02 -0.20008082190E-01 -0.11951646678E-01  0.23536859225E-01  0.00000000000E+00 0.  1.
     999901    1    3    3    0    0 -0.41915903936E-01  0.19437380028E-01  0.13338496689E+00  0.89124985506E+00  0.88000000000E+00 0. -1.
        -11    1    4    4    0    0  0.21564081464E-01  0.50744848084E-02 -0.39137970451E-01  0.44975569563E-01  0.51100000000E-03 0. -1.
         11    1    4    4    0    0  0.17062668946E-01 -0.45037826463E-02 -0.82295349761E-01  0.84167716157E-01  0.51100000000E-03 0.  1.
</event>
<event>
 8    1  0.1093753E+005  0.1043930E+01  0.7957747E-01            NaN
         13   -1    0    0    0    0  0.00000000000E+00  0.00000000000E+00  0.74505805969E-08  0.10566000000E+00  0.10566000000E+00 0.  1.
     999900   -1    0    0    0    0 -0.00000000000E+00 -0.00000000000E+00 -0.74505805969E-08  0.93827000000E+00  0.93827000000E+00 0. -1.
     999902    2    1    2    0    0  0.13221257311E-01 -0.13493702422E-01  0.11559536394E-01  0.10217826631E+01  0.10215426110E+01 0.  0.
     999903    2    3    3    0    0 -0.51428755876E-01 -0.40810993583E-01 -0.11108409780E+00  0.13050979826E+00  0.19562119751E-01 0.  0.
         14    1    1    2    0    0 -0.13221257311E-01  0.13493702422E-01 -0.11559536394E-01  0.22147336896E-01  0.00000000000E+00 0.  1.
     999901    1    3    3    0    0  0.64650013186E-01  0.27317291161E-01  0.12264363420E+00  0.89127286485E+00  0.88000000000E+00 0.  1.
        -11    1    4    4    0    0 -0.19338133509E-01 -0.11607377352E-01 -0.22466569980E-01  0.31838695078E-01  0.51100000000E-03 0. -1.
         11    1    4    4    0    0 -0.32090622367E-01 -0.29203616230E-01 -0.88617527821E-01  0.98671103181E-01  0.51100000000E-03 0.  1.
</event>
<event>
 8    1  0.1093753E+005  0.1043930E+01  0.7957747E-01            NaN
         13   -1    0    0    0    0  0.00000000000E+00  0.00000000000E+00  0.74505805969E-08  0.10566000000E+00  0.10566000000E+00 0. -1.
     999900   -1    0    0    0    0 -0.00000000000E+00 -0.00000000000E+00 -0.74505805969E-08  0.93827000000E+00  0.93827000000E+00 0. -1.
     999902    2    1    2    0    0 -0.14459795029E-01  0.79556986758E-02 -0.17009678809E-01  0.10202296205E+01  0.10199542983E+01 0.  0.
     999903    2    3    3    0    0 -0.94869563349E-01 -0.15753893476E-01 -0.90122265343E-01  0.13322718203E+00  0.19468952494E-01 0.  0.
         14    1    1    2    0    0  0.14459795029E-01 -0.79556986758E-02  0.17009678809E-01  0.23700379467E-01  0.00000000000E+00 0. -1.
     999901    1    3    3    0    0  0.80409768320E-01  0.23709592152E-01  0.73112586535E-01  0.88700243850E+00  0.88000000000E+00 0.  1.
        -11    1    4    4    0    0 -0.26018154459E-01 -0.39628300127E-02 -0.13649375774E-01  0.29651559203E-01  0.51100000000E-03 0.  1.
         11    1    4    4    0    0 -0.68851408890E-01 -0.11791063464E-01 -0.76472889570E-01  0.10357562283E+00  0.51100000000E-03 0. -1.
</event>
<event>
 8    1  0.1093753E+005  0.1043930E+01  0.7957747E-01            NaN
         13   -1    0    0    0    0  0.00000000000E+00  0.00000000000E+00  0.74505805969E-08  0.10566000000E+00  0.10566000000E+00 0. -1.
     999900   -1    0    0    0    0 -0.00000000000E+00 -0.00000000000E+00 -0.74505805969E-08  0.93827000000E+00  0.93827000000E+00 0.  1.
     999902    2    1    2    0    0  0.43873765318E-03  0.25080898744E-01 -0.41654230201E-02  0.10185017731E+01  0.10181842992E+01 0.  0.
     999903    2    3    3    0    0 -0.23401333408E-02  0.19567223997E-03 -0.12866626319E+00  0.12938566383E+00  0.13421185069E-01 0.  0.
         14    1    1    2    0    0 -0.43873765318E-03 -0.25080898744E-01  0.41654230201E-02  0.25428226865E-01  0.00000000000E+00 0.  1.
     999901    1    3    3    0    0  0.27788709939E-02  0.24885226504E-01  0.12450084017E+00  0.88911610931E+00  0.88000000000E+00 0. -1.
        -11    1    4    4    0    0  0.37948218398E-02  0.46343691192E-02 -0.60705617744E-01  0.61002550738E-01  0.51100000000E-03 0.  1.
         11    1    4    4    0    0 -0.61349551805E-02 -0.44386968792E-02 -0.67960645450E-01  0.68383113091E-01  0.51100000000E-03 0. -1.
</event>
<event>
 7    1  0.1093753E+005  0.1043930E+01  0.7957747E-01            NaN
         13   -1    0    0    0    0  0.00000000000E+00  0.00000000000E+00  0.74505805969E-08  0.10566000000E+00  0.10566000000E+00 0.  1.
     999900   -1    0    0    0    0 -0.00000000000E+00 -0.00000000000E+00 -0.74505805969E-08  0.93827000000E+00  0.93827000000E+00 0.  1.
     999903    2    1    2    0    0 -0.10912185518E+00  0.21914371205E-01  0.30725019646E-01  0.11719823384E+00  0.20089306596E-01 0.  0.
         14    1    1    2    0    0  0.40986573710E-01  0.13089616938E-02  0.12097486810E-01  0.42754669830E-01  0.00000000000E+00 0.  1.
     999901    1    1    2    0    0  0.68135281474E-01 -0.23223332898E-01 -0.42822506456E-01  0.88397709633E+00  0.88000000000E+00 0.  1.
        -11    1    3    3    0    0 -0.78189301622E-01  0.19273408709E-01  0.30599076626E-01  0.86148684162E-01  0.51100000000E-03 0. -1.
         11    1    3    3    0    0 -0.30932553561E-01  0.26409624955E-02  0.12594302011E-03  0.31049549680E-01  0.51100000000E-03 0.  1.
</event>
<event>
 8    1  0.1093753E+005  0.1043930E+01  0.7957747E-01            NaN
         13   -1    0    0    0    0  0.00000000000E+00  0.00000000000E+00  0.74505805969E-08  0.10566000000E+00  0.10566000000E+00 0.  1.
     999900   -1    0    0    0    0 -0.00000000000E+00 -0.00000000000E+00 -0.74505805969E-08  0.93827000000E+00  0.93827000000E+00 0. -1.
     999902    2    1    2    0    0 -0.14115657845E-02  0.41504041974E-02  0.23019096118E-01  0.10204971777E+01  0.10202281081E+01 0.  0.
     999903    2    3    3    0    0 -0.57097235416E-01 -0.10341141642E+00  0.54819651885E-01  0.13163176925E+00  0.19175846961E-01 0.  0.
         14    1    1    2    0    0  0.14115657845E-02 -0.41504041974E-02 -0.23019096118E-01  0.23432822259E-01  0.00000000000E+00 0. -1.
     999901    1    3    3    0    0  0.55685669632E-01  0.10756182061E+00 -0.31800555768E-01  0.88886540849E+00  0.88000000000E+00 0. -1.
        -11    1    4    4    0    0 -0.24105279339E-01 -0.31232361564E-01  0.25733864841E-01  0.47106452015E-01  0.51100000000E-03 0.  1.
         11    1    4    4    0    0 -0.32991956078E-01 -0.72179054853E-01  0.29085787045E-01  0.84525317239E-01  0.51100000000E-03 0. -1.
</event>
<event>
 8    1  0.1093753E+005  0.1043930E+01  0.7957747E-01            NaN
         13   -1    0    0    0    0  0.00000000000E+00  0.00000000000E+00  0.74505805969E-08  0.10566000000E+00  0.10566000000E+00 0. -1.
     999900   -1    0    0    0    0 -0.00000000000E+00 -0.00000000000E+00 -0.74505805969E-08  0.93827000000E+00  0.93827000000E+00 0.  1.
     999902    2    1    2    0    0  0.14239744162E-01 -0.12851194542E-01  0.14627155231E-01  0.10198078694E+01  0.10195225418E+01 0.  0.
     999903    2    3    3    0    0  0.90896346031E-01  0.85528170107E-01 -0.30045439101E-01  0.12989193253E+00  0.19798285824E-01 0.  0.
         14    1    1    2    0    0 -0.14239744162E-01  0.12851194542E-01 -0.14627155231E-01  0.24122130608E-01  0.00000000000E+00 0.  1.
     999901    1    3    3    0    0 -0.76656601869E-01 -0.98379364648E-01  0.44672594331E-01  0.88991593686E+00  0.88000000000E+00 0. -1.
        -11    1    4    4    0    0  0.37806712348E-01  0.45370934186E-01 -0.21142514477E-01  0.62730664007E-01  0.51100000000E-03 0. -1.
         11    1    4    4    0    0  0.53089633684E-01  0.40157235921E-01 -0.89029246239E-02  0.67161268521E-01  0.51100000000E-03 0.  1.
</event>
<event>
 8    1  0.1093753E+005  0.1043930E+01  0.7957747E-01            NaN
         13   -1    0    0    0    0  0.00000000000E+00  0.00000000000E+00  0.74505805969E-08  0.10566000000E+00  0.10566000000E+00 0. -1.
     999900   -1    0    0    0    0 -0.00000000000E+00 -0.00000000000E+00 -0.74505805969E-08  0.93827000000E+00  0.93827000000E+00 0.  1.
     999902    2    1    2    0    0 -0.15161039764E-01  0.16934089590E-01 -0.76471656794E-02  0.10199487644E+01  0.10196667997E+01 0.  0.
     999903    2    3    3    0    0  0.11856556731E+00 -0.31872129681E-01  0.29354462535E-01  0.12774140457E+00  0.19559027819E-01 0.  0.
         14    1    1    2    0    0  0.15161039764E-01 -0.16934089590E-01  0.76471656794E-02  0.23981235579E-01  0.00000000000E+00 0. -1.
     999901    1    3    3    0    0 -0.13372660707E+00  0.48806219271E-01 -0.37001628214E-01  0.89220735985E+00  0.88000000000E+00 0. -1.
        -11    1    4    4    0    0  0.28295283038E-01  0.74250339416E-03  0.55041131846E-02  0.28839742309E-01  0.51100000000E-03 0. -1.
         11    1    4    4    0    0  0.90270284272E-01 -0.32614633076E-01  0.23850349350E-01  0.98901662263E-01  0.51100000000E-03 0.  1.
</event>
<event>
 8    1  0.1093753E+005  0.1043930E+01  0.7957747E-01            NaN
         13   -1    0    0    0    0  0.00000000000E+00  0.00000000000E+00  0.74505805969E-08  0.10566000000E+00  0.10566000000E+00 0.  1.
     999900   -1    0    0    0    0 -0.00000000000E+00 -0.00000000000E+00 -0.74505805969E-08  0.93827000000E+00  0.93827000000E+00 0. -1.
     999902    2    1    2    0    0  0.13826428347E-01  0.12567377241E-01 -0.10017322162E-01  0.10227296265E+01  0.10225098695E+01 0.  0.
     999903    2    3    3    0    0 -0.51472536290E-01 -0.74655933065E-01 -0.93132036653E-01  0.13212313857E+00  0.23664681728E-01 0.  0.
         14    1    1    2    0    0 -0.13826428347E-01 -0.12567377241E-01  0.10017322162E-01  0.21200373460E-01  0.00000000000E+00 0.  1.
     999901    1    3    3    0    0  0.65298964637E-01  0.87223310307E-01  0.83114714491E-01  0.89060648797E+00  0.88000000000E+00 0.  1.
        -11    1    4    4    0    0 -0.18582978905E-01 -0.99283236581E-02 -0.22504175915E-01  0.30831765604E-01  0.51100000000E-03 0.  1.
         11    1    4    4    0    0 -0.32889557385E-01 -0.64727609407E-01 -0.70627860739E-01  0.10129137297E+00  0.51100000000E-03 0. -1.
</event>
<event>
 8    1  0.1093753E+005  0.1043930E+01  0.7957747E-01            NaN
         13   -1    0    0    0    0  0.00000000000E+00  0.00000000000E+00  0.74505805969E-08  0.10566000000E+00  0.10566000000E+00 0.  1.
     999900   -1    0    0    0    0 -0.00000000000E+00 -0.00000000000E+00 -0.74505805969E-08  0.93827000000E+00  0.93827000000E+00 0.  1.
     999902    2    1    2    0    0  0.17875609600E-01 -0.15389968925E-01 -0.22334979616E-02  0.10202366027E+01  0.10199614446E+01 0.  0.
     999903    2    3    3    0    0 -0.25873856987E-01 -0.51684591886E-01  0.11562785950E+00  0.13056103540E+00  0.18320168052E-01 0.  0.
         14    1    1    2    0    0 -0.17875609600E-01  0.15389968925E-01  0.22334979616E-02  0.23693397292E-01  0.00000000000E+00 0. -1.
     999901    1    3    3    0    0  0.43749466588E-01  0.36294622961E-01 -0.11786135746E+00  0.88967556731E+00  0.88000000000E+00 0.  1.
        -11    1    4    4    0    0 -0.28475556291E-02 -0.16531233440E-01  0.48917104124E-01  0.51715901316E-01  0.51100000000E-03 0. -1.
         11    1    4    4    0    0 -0.23026301358E-01 -0.35153358446E-01  0.66710755379E-01  0.78845134083E-01  0.51100000000E-03 0.  1.
</event>
<event>
 8    1  0.1093753E+005  0.1043930E+01  0.7957747E-01            NaN
         13   -1    0    0    0    0  0.00000000000E+00  0.00000000000E+00  0.74505805969E-08  0.10566000000E+00  0.10566000000E+00 0.  1.
     999900   -1    0    0    0    0 -0.00000000000E+00 -0.00000000000E+00 -0.74505805969E-08  0.93827000000E+00  0.93827000000E+00 0.  1.
     999902    2    1    2    0    0 -0.10805539873E-01  0.20831132443E-01 -0.13507659372E-03  0.10204627033E+01  0.10201928321E+01 0.  0.
     999903    2    3    3    0    0 -0.64249085004E-01  0.14660685832E-01  0.11220654066E+00  0.13169112074E+00  0.20232718111E-01 0.  0.
         14    1    1    2    0    0  0.10805539873E-01 -0.20831132443E-01  0.13507659372E-03  0.23467296744E-01  0.00000000000E+00 0.  1.
     999901    1    3    3    0    0  0.53443545131E-01  0.61704466104E-02 -0.11234161725E+00  0.88877158252E+00  0.88000000000E+00 0.  1.
        -11    1    4    4    0    0 -0.16537421187E-01  0.11649932670E-01  0.43629068027E-01  0.48093283613E-01  0.51100000000E-03 0. -1.
         11    1    4    4    0    0 -0.47711663816E-01  0.30107531626E-02  0.68577472628E-01  0.83597837124E-01  0.51100000000E-03 0.  1.
</event>
<event>
 8    1  0.1093753E+005  0.1043930E+01  0.7957747E-01            NaN
         13   -1    0    0    0    0  0.00000000000E+00  0.00000000000E+00  0.74505805969E-08  0.10566000000E+00  0.10566000000E+00 0. -1.
     999900   -1    0    0    0    0 -0.00000000000E+00 -0.00000000000E+00 -0.74505805969E-08  0.93827000000E+00  0.93827000000E+00 0.  1.
     999902    2    1    2    0    0 -0.20858684693E-01  0.75901968398E-02  0.86806083265E-03  0.10217162803E+01  0.10214747711E+01 0.  0.
     999903    2    3    3    0    0  0.62253017051E-02 -0.11682992801E+00  0.55321803605E-01  0.13088570159E+00  0.19559613124E-01 0.  0.
         14    1    1    2    0    0  0.20858684693E-01 -0.75901968398E-02 -0.86806083265E-03  0.22213719743E-01  0.00000000000E+00 0.  1.
     999901    1    3    3    0    0 -0.27083986399E-01  0.12442012485E+00 -0.54453742773E-01  0.89083057867E+00  0.88000000000E+00 0.  1.
        -11    1    4    4    0    0  0.37405671176E-02 -0.85876132375E-01  0.30786266617E-01  0.91305844760E-01  0.51100000000E-03 0. -1.
         11    1    4    4    0    0  0.24847345875E-02 -0.30953795638E-01  0.24535536988E-01  0.39579856830E-01  0.51100000000E-03 0.  1.
</event>
<event>
 8    1  0.1093753E+005  0.1043930E+01  0.7957747E-01            NaN
         13   -1    0    0    0    0  0.00000000000E+00  0.00000000000E+00  0.74505805969E-08  0.10566000000E+00  0.10566000000E+00 0. -1.
     999900   -1    0    0    0    0 -0.00000000000E+00 -0.00000000000E+00 -0.74505805969E-08  0.93827000000E+00  0.93827000000E+00 0.  1.
     999902    2    1    2    0    0  0.19277161958E-01  0.18359134674E-02  0.14630380045E-01  0.10196601098E+01  0.10193712336E+01 0.  0.
     999903    2    3    3    0    0  0.34306081609E-01 -0.77178936126E-01 -0.95739071151E-01  0.12912620776E+00  0.19341984584E-01 0.  0.
         14    1    1    2    0    0 -0.19277161958E-01 -0.18359134674E-02 -0.14630380045E-01  0.24269890228E-01  0.00000000000E+00 0.  1.
     999901    1    3    3    0    0 -0.15028919651E-01  0.79014849593E-01  0.11036945120E+00  0.89053390202E+00  0.88000000000E+00 0. -1.
        -11    1    4    4    0    0  0.13184557938E-03 -0.45373090549E-02 -0.13271491349E-01  0.14035603313E-01  0.51100000000E-03 0.  1.
         11    1    4    4    0    0  0.34174236030E-01 -0.72641627071E-01 -0.82467579802E-01  0.11509060444E+00  0.51100000000E-03 0. -1.
</event>
<event>
 8    1  0.1093753E+005  0.1043930E+01  0.7957747E-01            NaN
         13   -1    0    0    0    0  0.00000000000E+00  0.00000000000E+00  0.74505805969E-08  0.10566000000E+00  0.10566000000E+00 0. -1.
     999900   -1    0    0    0    0 -0.00000000000E+00 -0.00000000000E+00 -0.74505805969E-08  0.93827000000E+00  0.93827000000E+00 0. -1.
     999902    2    1    2    0    0  0.37696339846E-02 -0.13981465138E-01  0.18433587445E-01  0.10204888257E+01  0.10202195620E+01 0.  0.
     999903    2    3    3    0    0 -0.11031369158E+00 -0.92056888161E-02  0.68725236296E-01  0.13168791256E+00  0.19096935693E-01 0.  0.
         14    1    1    2    0    0 -0.37696339846E-02  0.13981465138E-01 -0.18433587445E-01  0.23441174328E-01  0.00000000000E+00 0.  1.
     999901    1    3    3    0    0  0.11408332557E+00 -0.47757763215E-02 -0.50291648851E-01  0.88880091312E+00  0.88000000000E+00 0. -1.
        -11    1    4    4    0    0 -0.71220813959E-01 -0.67036068183E-02  0.33453956792E-01  0.78973229840E-01  0.51100000000E-03 0. -1.
         11    1    4    4    0    0 -0.39092877622E-01 -0.25020819978E-02  0.35271279503E-01  0.52714682716E-01  0.51100000000E-03 0.  1.
</event>
<event>
 8    1  0.1093753E+005  0.1043930E+01  0.7957747E-01            NaN
         13   -1    0    0    0    0  0.00000000000E+00  0.00000000000E+00  0.74505805969E-08  0.10566000000E+00  0.10566000000E+00 0.  1.
     999900   -1    0    0    0    0 -0.00000000000E+00 -0.00000000000E+00 -0.74505805969E-08  0.93827000000E+00  0.93827000000E+00 0.  1.
     999902    2    1    2    0    0  0.53495820740E-02  0.45440735358E-02  0.21872796697E-01  0.10209585859E+01  0.10207001265E+01 0.  0.
     999903    2    3    3    0    0 -0.26159574181E-01  0.12652014836E+00 -0.16529277595E-01  0.13115764796E+00  0.15409099258E-01 0.  0.
         14    1    1    2    0    0 -0.53495820740E-02 -0.45440735358E-02 -0.21872796697E-01  0.22971414149E-01  0.00000000000E+00 0. -1.
     999901    1    3    3    0    0  0.31509156255E-01 -0.12197607482E+00  0.38402074292E-01  0.88980093789E+00  0.88000000000E+00 0.  1.
        -11    1    4    4    0    0 -0.26726390994E-01  0.98043422914E-01 -0.12556873461E-01  0.10239506309E+00  0.51100000000E-03 0.  1.
         11    1    4    4    0    0  0.56681681251E-03  0.28476725442E-01 -0.39724041335E-02  0.28762584877E-01  0.51100000000E-03 0. -1.
</event>
<event>
 8    1  0.1093753E+005  0.1043930E+01  0.7957747E-01            NaN
         13   -1    0    0    0    0  0.00000000000E+00  0.00000000000E+00  0.74505805969E-08  0.10566000000E+00  0.10566000000E+00 0. -1.
     999900   -1    0    0    0    0 -0.00000000000E+00 -0.00000000000E+00 -0.74505805969E-08  0.93827000000E+00  0.93827000000E+00 0. -1.
     999902    2    1    2    0    0 -0.11886666765E-01  0.18564007373E-02  0.20501998275E-01  0.10201587778E+01  0.10198817877E+01 0.  0.
     999903    2    3    3    0    0  0.21964262792E-01  0.91107687004E-01 -0.85823370471E-01  0.12863381375E+00  0.19949126524E-01 0.  0.
         14    1    1    2    0    0  0.11886666765E-01 -0.18564007373E-02 -0.20501998275E-01  0.23771222176E-01  0.00000000000E+00 0.  1.
     999901    1    3    3    0    0 -0.33850929557E-01 -0.89251286267E-01  0.10632536875E+00  0.89152496408E+00  0.88000000000E+00 0.  1.
        -11    1    4    4    0    0  0.57355063658E-02  0.54497260994E-01 -0.58459482635E-01  0.80128769615E-01  0.51100000000E-03 0. -1.
         11    1    4    4    0    0  0.16228756426E-01  0.36610426010E-01 -0.27363887836E-01  0.48505044133E-01  0.51100000000E-03 0.  1.
</event>
<event>
 8    1  0.1093753E+005  0.1043930E+01  0.7957747E-01            NaN
         13   -1    0    0    0    0  0.00000000000E+00  0.00000000000E+00  0.74505805969E-08  0.10566000000E+00  0.10566000000E+00 0.  1.
     999900   -1    0    0    0    0 -0.00000000000E+00 -0.00000000000E+00 -0.74505805969E-08  0.93827000000E+00  0.93827000000E+00 0.  1.
     999902    2    1    2    0    0 -0.23656945079E-01 -0.10880248148E-02  0.80044253540E-03  0.10202345246E+01  0.10199593176E+01 0.  0.
     999903    2    3    3    0    0 -0.86728305766E-01  0.44539724838E-01 -0.87268210093E-01  0.13241924216E+00  0.20335414705E-01 0.  0.
         14    1    1    2    0    0  0.23656945079E-01  0.10880248148E-02 -0.80044253540E-03  0.23695475448E-01  0.00000000000E+00 0.  1.
     999901    1    3    3    0    0  0.63071360687E-01 -0.45627749653E-01  0.88068652628E-01  0.88781528239E+00  0.88000000000E+00 0. -1.
        -11    1    4    4    0    0 -0.50359347874E-01  0.21357238316E-01 -0.60919406078E-01  0.81875702774E-01  0.51100000000E-03 0. -1.
         11    1    4    4    0    0 -0.36368957891E-01  0.23182486522E-01 -0.26348804014E-01  0.50543539383E-01  0.51100000000E-03 0.  1.
</event>
<event>
 8    1  0.1093753E+005  0.1043930E+01  0.7957747E-01            NaN
         13   -1    0    0    0    0  0.00000000000E+00  0.00000000000E+00  0.74505805969E-08  0.10566000000E+00  0.10566000000E+00 0. -1.
     999900   -1    0    0    0    0 -0.00000000000E+00 -0.00000000000E+00 -0.74505805969E-08  0.93827000000E+00  0.93827000000E+00 0.  1.
     999902    2    1    2    0    0 -0.12479003688E-01  0.14566153244E-01  0.49137866374E-02  0.10241299078E+01  0.10239384866E+01 0.  0.
     999903    2    3    3    0    0 -0.38252933824E-01  0.95434629992E-01 -0.85677423006E-01  0.13541692076E+00  0.20641367867E-01 0.  0.
         14    1    1    2    0    0  0.12479003688E-01 -0.14566153244E-01 -0.49137866374E-02  0.19800092235E-01  0.00000000000E+00 0.  1.
     999901    1    3    3    0    0  0.25773930136E-01 -0.80868476748E-01  0.90591209644E-01  0.88871298700E+00  0.88000000000E+00 0. -1.
        -11    1    4    4    0    0 -0.14821106803E-01  0.44009215822E-01 -0.51609507810E-01  0.69428226980E-01  0.51100000000E-03 0. -1.
         11    1    4    4    0    0 -0.23431827021E-01  0.51425414170E-01 -0.34067915196E-01  0.65988693780E-01  0.51100000000E-03 0.  1.
</event>
<event>
 8    1  0.1093753E+005  0.1043930E+01  0.7957747E-01            NaN
         13   -1    0    0    0    0  0.00000000000E+00  0.00000000000E+00  0.74505805969E-08  0.10566000000E+00  0.10566000000E+00 0.  1.
     999900   -1    0    0    0    0 -0.00000000000E+00 -0.00000000000E+00 -0.74505805969E-08  0.93827000000E+00  0.93827000000E+00 0.  1.
     999902    2    1    2    0    0  0.25527746942E-02  0.75066925005E-02 -0.22266015800E-01  0.10202943796E+01  0.10200205775E+01 0.  0.
     999903    2    3    3    0    0 -0.11948711005E+00 -0.28683209695E-02  0.45160036577E-01  0.12925698035E+00  0.19558663834E-01 0.  0.
         14    1    1    2    0    0 -0.25527746942E-02 -0.75066925005E-02  0.22266015800E-01  0.23635620376E-01  0.00000000000E+00 0.  1.
     999901    1    3    3    0    0  0.12203988475E+00  0.10375013470E-01 -0.67426052377E-01  0.89103739928E+00  0.88000000000E+00 0.  1.
        -11    1    4    4    0    0 -0.44498341733E-01 -0.10374414972E-01  0.15223782197E-01  0.48163840880E-01  0.51100000000E-03 0.  1.
         11    1    4    4    0    0 -0.74988768319E-01  0.75060940021E-02  0.29936254380E-01  0.81093139466E-01  0.51100000000E-03 0. -1.
</event>
<event>
 8    1  0.1093753E+005  0.1043930E+01  0.7957747E-01            NaN
         13   -1    0    0    0    0  0.00000000000E+00  0.00000000000E+00  0.74505805969E-08  0.10566000000E+00  0.10566000000E+00 0.  1.
     999900   -1    0    0    0    0 -0.00000000000E+00 -0.00000000000E+00 -0.74505805969E-08  0.93827000000E+00  0.93827000000E+00 0.  1.
     999902    2    1    2    0    0 -0.22508217586E-01 -0.24769566444E-02  0.41157735615E-03  0.10212821619E+01  0.10210310131E+01 0.  0.
     999903    2    3    3    0    0 -0.61891704684E-01 -0.96058766741E-01 -0.64705399781E-01  0.13305424358E+00  0.21418991497E-01 0.  0.
         14    1    1    2    0    0  0.22508217586E-01  0.24769566444E-02 -0.41157735615E-03  0.22647838065E-01  0.00000000000E+00 0.  1.
     999901    1    3    3    0    0  0.39383487098E-01  0.93581810097E-01  0.65116977137E-01  0.88822791836E+00  0.88000000000E+00 0. -1.
        -11    1    4    4    0    0 -0.11385021297E-01 -0.35961178759E-01 -0.19521128470E-01  0.42475412481E-01  0.51100000000E-03 0. -1.
         11    1    4    4    0    0 -0.50506683387E-01 -0.60097587982E-01 -0.45184271311E-01  0.90578831097E-01  0.51100000000E-03 0.  1.
</event>
<event>
 8    1  0.1093753E+005  0.1043930E+01  0.7957747E-01            NaN
         13   -1    0    0    0    0  0.00000000000E+00  0.00000000000E+00  0.74505805969E-08  0.10566000000E+00  0.10566000000E+00 0.  1.
     999900   -1    0    0    0    0 -0.00000000000E+00 -0.00000000000E+00 -0.74505805969E-08  0.93827000000E+00  0.93827000000E+00 0. -1.
     999902    2    1    2    0    0  0.15173698717E-01  0.18228851616E-01 -0.87551701006E-02  0.10186478884E+01  0.10183340981E+01 0.  0.
     999903    2    3    3    0    0 -0.33482008335E-01 -0.49492288505E-01  0.11010112031E+00  0.12675083804E+00  0.19312864811E-01 0.  0.
         14    1    1    2    0    0 -0.15173698717E-01 -0.18228851616E-01  0.87551701006E-02  0.25282111610E-01  0.00000000000E+00 0.  1.
     999901    1    3    3    0    0  0.48655707052E-01  0.67721140121E-01 -0.11885629041E+00  0.89189705035E+00  0.88000000000E+00 0.  1.
        -11    1    4    4    0    0 -0.22766847695E-01 -0.33337836247E-01  0.90893200004E-01  0.99456400536E-01  0.51100000000E-03 0.  1.
         11    1    4    4    0    0 -0.10715160641E-01 -0.16154452257E-01  0.19207920307E-01  0.27294437507E-01  0.51100000000E-03 0. -1.
</event>
<event>
 8    1  0.1093753E+005  0.1043930E+01  0.7957747E-01            NaN
         13   -1    0    0    0    0  0.00000000000E+00  0.00000000000E+00  0.74505805969E-08  0.10566000000E+00  0.10566000000E+00 0.  1.
     999900   -1    0    0    0    0 -0.00000000000E+00 -0.00000000000E+00 -0.74505805969E-08  0.93827000000E+00  0.93827000000E+00 0. -1.
     999902    2    1    2    0    0 -0.15807657485E-01  0.19207749512E-01  0.82731102084E-02  0.10177142790E+01  0.10173765722E+01 0.  0.
     999903    2    3    3    0    0  0.67580486895E-03 -0.97832222820E-01  0.78713906880E-01  0.12702243243E+00  0.19162950473E-01 0.  0.
         14    1    1    2    0    0  0.15807657485E-01 -0.19207749512E-01 -0.82731102084E-02  0.26215721028E-01  0.00000000000E+00 0. -1.
     999901    1    3    3    0    0 -0.16483462354E-01  0.11703997233E+00 -0.70440796671E-01  0.89069184654E+00  0.88000000000E+00 0. -1.
        -11    1    4    4    0    0  0.16385246655E-02 -0.59913442953E-01  0.36098746491E-01  0.69969179135E-01  0.51100000000E-03 0.  1.
         11    1    4    4    0    0 -0.96271979651E-03 -0.37918779868E-01  0.42615160388E-01  0.57053253299E-01  0.51100000000E-03 0. -1.
</event>
<event>
 8    1  0.1093753E+005  0.1043930E+01  0.7957747E-01            NaN
         13   -1    0    0    0    0  0.00000000000E+00  0.00000000000E+00  0.74505805969E-08  0.10566000000E+00  0.10566000000E+00 0. -1.
     999900   -1    0    0    0    0 -0.00000000000E+00 -0.00000000000E+00 -0.74505805969E-08  0.93827000000E+00  0.93827000000E+00 0.  1.
     999902    2    1    2    0    0 -0.16779318231E-01 -0.78177272146E-02  0.76621500045E-02  0.10238957563E+01  0.10236997357E+01 0.  0.
     999903    2    3    3    0    0  0.38805203999E-01 -0.35186518162E-01 -0.12010303230E+00  0.13251332901E+00  0.19776477927E-01 0.  0.
         14    1    1    2    0    0  0.16779318231E-01  0.78177272146E-02 -0.76621500045E-02  0.20034243729E-01  0.00000000000E+00 0. -1.
     999901    1    3    3    0    0 -0.55584522230E-01  0.27368790947E-01  0.12776518230E+00  0.89138242727E+00  0.88000000000E+00 0. -1.
        -11    1    4    4    0    0  0.22459778170E-01 -0.81869089746E-02 -0.43038469081E-01  0.49234520978E-01  0.51100000000E-03 0.  1.
         11    1    4    4    0    0  0.16345425829E-01 -0.26999609187E-01 -0.77064563216E-01  0.83278808028E-01  0.51100000000E-03 0. -1.
</event>
<event>
 8    1  0.1093753E+005  0.1043930E+01  0.7957747E-01            NaN
         13   -1    0    0    0    0  0.00000000000E+00  0.00000000000E+00  0.74505805969E-08  0.10566000000E+00  0.10566000000E+00 0. -1.
     999900   -1    0    0    0    0 -0.00000000000E+00 -0.00000000000E+00 -0.74505805969E-08  0.93827000000E+00  0.93827000000E+00 0. -1.
     999902    2    1    2    0    0  0.92239162254E-02  0.10198322690E-01  0.17787576082E-01  0.10214470225E+01  0.10211995571E+01 0.  0.
     999903    2    3    3    0    0 -0.92957690276E-01  0.91386759979E-01  0.17027004489E-02  0.13167662158E+00  0.18524616080E-01 0.  0.
         14    1    1    2    0    0 -0.92239162254E-02 -0.10198322690E-01 -0.17787576082E-01  0.22482977541E-01  0.00000000000E+00 0. -1.
     999901    1    3    3    0    0  0.10218160650E+00 -0.81188437289E-01  0.16084875633E-01  0.88977040088E+00  0.88000000000E+00 0. -1.
        -11    1    4    4    0    0 -0.55967470183E-01  0.57076020185E-01  0.99335107779E-02  0.80554115699E-01  0.51100000000E-03 0. -1.
         11    1    4    4    0    0 -0.36990220094E-01  0.34310739794E-01 -0.82308103290E-02  0.51122505880E-01  0.51100000000E-03 0.  1.
</event>
<event>
 8    1  0.1093753E+005  0.1043930E+01  0.7957747E-01            NaN
         13   -1    0    0    0    0  0.00000000000E+00  0.00000000000E+00  0.74505805969E-08  0.10566000000E+00  0.10566000000E+00 0.  1.
     999900   -1    0    0    0    0 -0.00000000000E+00 -0.00000000000E+00 -0.74505805969E-08  0.93827000000E+00  0.93827000000E+00 0. -1.
     999902    2    1    2    0    0  0.86211685148E-02  0.19999925004E-01 -0.10939206624E-01  0.10195581353E+01  0.10192667970E+01 0.  0.
     999903    2    3    3    0    0  0.41112581890E-01 -0.98576107510E-01  0.67390998903E-01  0.12756509244E+00  0.17994796907E-01 0.  0.
         14    1    1    2    0    0 -0.86211685148E-02 -0.19999925004E-01  0.10939206624E-01  0.24371864686E-01  0.00000000000E+00 0. -1.
     999901    1    3    3    0    0 -0.32491413375E-01  0.11857603251E+00 -0.78330205526E-01  0.89199304287E+00  0.88000000000E+00 0. -1.
        -11    1    4    4    0    0  0.34544611934E-01 -0.61746145230E-01  0.47163573823E-01  0.85032820023E-01  0.51100000000E-03 0.  1.
         11    1    4    4    0    0  0.65679699556E-02 -0.36829962281E-01  0.20227425079E-01  0.42532272421E-01  0.51100000000E-03 0. -1.
</event>
<event>
 8    1  0.1093753E+005  0.1043930E+01  0.7957747E-01            NaN
         13   -1    0    0    0    0  0.00000000000E+00  0.00000000000E+00  0.74505805969E-08  0.10566000000E+00  0.10566000000E+00 0.  1.
     999900   -1    0    0    0    0 -0.00000000000E+00 -0.00000000000E+00 -0.74505805969E-08  0.93827000000E+00  0.93827000000E+00 0.  1.
     999902    2    1    2    0    0  0.13388037862E-01 -0.10528791897E-01 -0.16032785928E-01  0.10205388640E+01  0.10202707620E+01 0.  0.
     999903    2    3    3    0    0 -0.18496717770E-01 -0.86953528851E-01 -0.96727098369E-01  0.13297537329E+00  0.20573614053E-01 0.  0.
         14    1    1    2    0    0 -0.13388037862E-01  0.10528791897E-01  0.16032785928E-01  0.23391135954E-01  0.00000000000E+00 0.  1.
     999901    1    3    3    0    0  0.31884755632E-01  0.76424736954E-01  0.80694312441E-01  0.88756349075E+00  0.88000000000E+00 0.  1.
        -11    1    4    4    0    0 -0.12455266359E-01 -0.33630013913E-01 -0.26520674117E-01  0.44606263825E-01  0.51100000000E-03 0.  1.
         11    1    4    4    0    0 -0.60414514108E-02 -0.53323514938E-01 -0.70206424252E-01  0.88369109466E-01  0.51100000000E-03 0. -1.
</event>
<event>
 8    1  0.1093753E+005  0.1043930E+01  0.7957747E-01            NaN
         13   -1    0    0    0    0  0.00000000000E+00  0.00000000000E+00  0.74505805969E-08  0.10566000000E+00  0.10566000000E+00 0.  1.
     999900   -1    0    0    0    0 -0.00000000000E+00 -0.00000000000E+00 -0.74505805969E-08  0.93827000000E+00  0.93827000000E+00 0. -1.
     999902    2    1    2    0    0  0.12640386679E-01 -0.16699912665E-01  0.95365051835E-02  0.10209167128E+01  0.10206572995E+01 0.  0.
     999903    2    3    3    0    0 -0.12065595543E+00  0.26541799639E-01 -0.30757173973E-01  0.12891820319E+00  0.20287253437E-01 0.  0.
         14    1    1    2    0    0 -0.12640386679E-01  0.16699912665E-01 -0.95365051835E-02  0.23013287239E-01  0.00000000000E+00 0. -1.
     999901    1    3    3    0    0  0.13329634211E+00 -0.43241712304E-01  0.40293679157E-01  0.89199850957E+00  0.88000000000E+00 0.  1.
        -11    1    4    4    0    0 -0.28272752223E-01 -0.88201301056E-03 -0.12049160789E-01  0.30750119706E-01  0.51100000000E-03 0. -1.
         11    1    4    4    0    0 -0.92383203212E-01  0.27423812650E-01 -0.18708013184E-01  0.98168083481E-01  0.51100000000E-03 0.  1.
</event>
<event>
 8    1  0.1093753E+005  0.1043930E+01  0.7957747E-01            NaN
         13   -1    0    0    0    0  0.00000000000E+00  0.00000000000E+00  0.74505805969E-08  0.10566000000E+00  0.10566000000E+00 0. -1.
     999900   -1    0    0    0    0 -0.00000000000E+00 -0.00000000000E+00 -0.74505805969E-08  0.93827000000E+00  0.93827000000E+00 0.  1.
     999902    2    1    2    0    0 -0.19842314607E-01  0.12330281766E-01 -0.34369075285E-02  0.10203171723E+01  0.10200439042E+01 0.  0.
     999903    2    3    3    0    0  0.98877862629E-02 -0.78359346444E-01  0.10030016072E+00  0.12909897969E+00  0.19195541781E-01 0.  0.
         14    1    1    2    0    0  0.19842314607E-01 -0.12330281766E-01  0.34369075285E-02  0.23612827674E-01  0.00000000000E+00 0.  1.
     999901    1    3    3    0    0 -0.29730100870E-01  0.90689628210E-01 -0.10373706825E+00  0.89121819264E+00  0.88000000000E+00 0.  1.
        -11    1    4    4    0    0  0.42789960708E-02 -0.22674884914E-01  0.16680855820E-01  0.28477575127E-01  0.51100000000E-03 0.  1.
         11    1    4    4    0    0  0.56087901921E-02 -0.55684461530E-01  0.83619304897E-01  0.10062140456E+00  0.51100000000E-03 0. -1.
</event>
<event>
 8    1  0.1093753E+005  0.1043930E+01  0.7957747E-01            NaN
         13   -1    0    0    0    0  0.00000000000E+00  0.00000000000E+00  0.74505805969E-08  0.10566000000E+00  0.10566000000E+00 0.  1.
     999900   -1    0    0    0    0 -0.00000000000E+00 -0.00000000000E+00 -0.74505805969E-08  0.93827000000E+00  0.93827000000E+00 0. -1.
     999902    2    1    2    0    0  0.23399238132E-03 -0.23655661310E-01  0.11137387815E-01  0.10177826011E+01  0.10174466750E+01 0.  0.
     999903    2    3    3    0    0 -0.92920740342E-01 -0.88030677154E-01 -0.12679362641E-01  0.13020771154E+00  0.20239016799E-01 0.  0.
         14    1    1    2    0    0 -0.23399238132E-03  0.23655661310E-01 -0.11137387815E-01  0.26147398949E-01  0.00000000000E+00 0. -1.
     999901    1    3    3    0    0  0.93154732723E-01  0.64375015844E-01  0.23816750456E-01  0.88757488951E+00  0.88000000000E+00 0.  1.
        -11    1    4    4    0    0 -0.14500631824E-01 -0.13584094150E-01 -0.95012494300E-02  0.22030224668E-01  0.51100000000E-03 0. -1.
         11    1    4    4    0    0 -0.78420108517E-01 -0.74446583003E-01 -0.31781132109E-02  0.10817748687E+00  0.51100000000E-03 0.  1.
</event>
<event>
 8    1  0.1093753E+005  0.1043930E+01  0.7957747E-01            NaN
         13   -1    0    0    0    0  0.00000000000E+00  0.00000000000E+00  0.74505805969E-08  0.10566000000E+00  0.10566000000E+00 0.  1.
     999900   -1    0    0    0    0 -0.00000000000E+00 -0.00000000000E+00 -0.74505805969E-08  0.93827000000E+00  0.93827000000E+00 0.  1.
     999902    2    1    2    0    0 -0.85601415955E-02 -0.15400539550E-01 -0.13497472511E-01  0.10217346310E+01  0.10214935250E+01 0.  0.
     999903    2    3    3    0    0  0.92581825656E-01  0.84182067218E-01  0.26352498483E-01  0.12947098534E+00  0.20255048402E-01 0.  0.
         14    1    1    2    0    0  0.85601415955E-02  0.15400539550E-01  0.13497472511E-01  0.22195369038E-01  0.00000000000E+00 0.  1.
     999901    1    3    3    0    0 -0.10114196725E+00 -0.99582606768E-01 -0.39849970994E-01  0.89226364562E+00  0.88000000000E+00 0.  1.
        -11    1    4    4    0    0  0.58183819233E-01  0.64332970250E-01  0.13916980318E-01  0.87852326912E-01  0.51100000000E-03 0. -1.
         11    1    4    4    0    0  0.34398006422E-01  0.19849096968E-01  0.12435518165E-01  0.41618658427E-01  0.51100000000E-03 0.  1.
</event>
<event>
 8    1  0.1093753E+005  0.1043930E+01  0.7957747E-01            NaN
         13   -1    0    0    0    0  0.00000000000E+00  0.00000000000E+00  0.74505805969E-08  0.10566000000E+00  0.10566000000E+00 0.  1.
     999900   -1    0    0    0    0 -0.00000000000E+00 -0.00000000000E+00 -0.74505805969E-08  0.93827000000E+00  0.93827000000E+00 0.  1.
     999902    2    1    2    0    0 -0.19611058960E-01 -0.11267049055E-01  0.72784920624E-02  0.10201704446E+01  0.10198937295E+01 0.  0.
     999903    2    3    3    0    0  0.74119967001E-01  0.76801871584E-01  0.69143025488E-01  0.12867234557E+00  0.19583604203E-01 0.  0.
         14    1    1    2    0    0  0.19611058960E-01  0.11267049055E-01 -0.72784920624E-02  0.23759555439E-01  0.00000000000E+00 0.  1.
     999901    1    3    3    0    0 -0.93731025961E-01 -0.88068920639E-01 -0.61864533426E-01  0.89149809899E+00  0.88000000000E+00 0.  1.
        -11    1    4    4    0    0  0.31041700886E-01  0.45927966952E-01  0.32910158999E-01  0.64469411573E-01  0.51100000000E-03 0.  1.
         11    1    4    4    0    0  0.43078266115E-01  0.30873904633E-01  0.36232866489E-01  0.64202933996E-01  0.51100000000E-03 0. -1.
</event>
<event>
 8    1  0.1093753E+005  0.1043930E+01  0.7957747E-01            NaN
         13   -1    0    0    0    0  0.00000000000E+00  0.00000000000E+00  0.74505805969E-08  0.10566000000E+00  0.10566000000E+00 0.  1.
     999900   -1    0    0    0    0 -0.00000000000E+00 -0.00000000000E+00 -0.74505805969E-08  0.93827000000E+00  0.93827000000E+00 0. -1.
     999902    2    1    2    0    0  0.29619525264E-02  0.20784140847E-01 -0.61198629009E-02  0.10220620692E+01  0.10218281005E+01 0.  0.
     999903    2    3    3    0    0 -0.56276064183E-02 -0.12531888108E+00  0.25741377346E-01  0.12940591363E+00  0.18622031701E-01 0.  0.
         14    1    1    2    0    0 -0.29619525264E-02 -0.20784140847E-01  0.61198629009E-02  0.21867930753E-01  0.00000000000E+00 0. -1.
     999901    1    3    3    0    0  0.85895589447E-02  0.14610302193E+00 -0.31861240246E-01  0.89265615562E+00  0.88000000000E+00 0. -1.
        -11    1    4    4    0    0 -0.61507869543E-02 -0.25851293864E-01  0.11350157387E-01  0.28899978691E-01  0.51100000000E-03 0. -1.
         11    1    4    4    0    0  0.52318053596E-03 -0.99467587214E-01  0.14391219958E-01  0.10050593493E+00  0.51100000000E-03 0.  1.
</event>
<event>
 8    1  0.1093753E+005  0.1043930E+01  0.7957747E-01            NaN
         13   -1    0    0    0    0  0.00000000000E+00  0.00000000000E+00  0.74505805969E-08  0.10566000000E+00  0.10566000000E+00 0. -1.
     999900   -1    0    0    0    0 -0.00000000000E+00 -0.00000000000E+00 -0.74505805969E-08  0.93827000000E+00  0.93827000000E+00 0. -1.
     999902    2    1    2    0    0 -0.17177329848E-01 -0.12456679527E-01 -0.11138472873E-01  0.10199655450E+01  0.10196839794E+01 0.  0.
     999903    2    3    3    0    0 -0.30627377078E-01  0.10829154093E+00  0.59182128851E-01  0.12883927811E+00  0.20783193824E-01 0.  0.
         14    1    1    2    0    0  0.17177329848E-01  0.12456679527E-01  0.11138472873E-01  0.23964455001E-01  0.00000000000E+00 0.  1.
     999901    1    3    3    0    0  0.13450047230E-01 -0.12074822045E+00 -0.70320601725E-01  0.89112626689E+00  0.88000000000E+00 0. -1.
        -11    1    4    4    0    0 -0.10920153476E-01  0.28257400694E-01  0.64162743630E-02  0.30970310680E-01  0.51100000000E-03 0.  1.
         11    1    4    4    0    0 -0.19707223602E-01  0.80034140232E-01  0.52765854488E-01  0.97868967429E-01  0.51100000000E-03 0. -1.
</event>
<event>
 8    1  0.1093753E+005  0.1043930E+01  0.7957747E-01            NaN
         13   -1    0    0    0    0  0.00000000000E+00  0.00000000000E+00  0.74505805969E-08  0.10566000000E+00  0.10566000000E+00 0. -1.
     999900   -1    0    0    0    0 -0.00000000000E+00 -0.00000000000E+00 -0.74505805969E-08  0.93827000000E+00  0.93827000000E+00 0. -1.
     999902    2    1    2    0    0  0.99437261027E-02 -0.21085518775E-01 -0.53154561500E-02  0.10200191057E+01  0.10197388122E+01 0.  0.
     999903    2    3    3    0    0 -0.41055805567E-02 -0.61418872401E-01 -0.11516624982E+00  0.13216136977E+00  0.20352613641E-01 0.  0.
         14    1    1    2    0    0 -0.99437261027E-02  0.21085518775E-01  0.53154561500E-02  0.23910894272E-01  0.00000000000E+00 0. -1.
     999901    1    3    3    0    0  0.14049306659E-01  0.40333353626E-01  0.10985079367E+00  0.88785773596E+00  0.88000000000E+00 0.  1.
        -11    1    4    4    0    0 -0.10025507211E-01 -0.49172057695E-01 -0.99258580421E-01  0.11122467784E+00  0.51100000000E-03 0. -1.
         11    1    4    4    0    0  0.59199266539E-02 -0.12246814705E-01 -0.15907669403E-01  0.20936691927E-01  0.51100000000E-03 0.  1.
</event>
<event>
 8    1  0.1093753E+005  0.1043930E+01  0.7957747E-01            NaN
         13   -1    0    0    0    0  0.00000000000E+00  0.00000000000E+00  0.74505805969E-08  0.10566000000E+00  0.10566000000E+00 0.  1.
     999900   -1    0    0    0    0 -0.00000000000E+00 -0.00000000000E+00 -0.74505805969E-08  0.93827000000E+00  0.93827000000E+00 0. -1.
     999902    2    1    2    0    0 -0.19558786282E-01  0.15326686189E-01 -0.51507255784E-02  0.10185531719E+01  0.10182369963E+01 0.  0.
     999903    2    3    3    0    0  0.98709880344E-01 -0.74321767446E-01  0.93039354067E-02  0.12601003010E+00  0.22904123622E-01 0.  0.
         14    1    1    2    0    0  0.19558786282E-01 -0.15326686189E-01  0.51507255784E-02  0.25376828099E-01  0.00000000000E+00 0.  1.
     999901    1    3    3    0    0 -0.11826866663E+00  0.89648453635E-01 -0.14454660985E-01  0.89254314180E+00  0.88000000000E+00 0. -1.
        -11    1    4    4    0    0  0.56975203683E-01 -0.29952271630E-01 -0.11470648565E-03  0.64370697442E-01  0.51100000000E-03 0. -1.
         11    1    4    4    0    0  0.41734676661E-01 -0.44369495816E-01  0.94186418923E-02  0.61639332662E-01  0.51100000000E-03 0.  1.
</event>
<event>
 8    1  0.1093753E+005  0.1043930E+01  0.7957747E-01            NaN
         13   -1    0    0    0    0  0.00000000000E+00  0.00000000000E+00  0.74505805969E-08  0.10566000000E+00  0.10566000000E+00 0. -1.
     999900   -1    0    0    0    0 -0.00000000000E+00 -0.00000000000E+00 -0.74505805969E-08  0.93827000000E+00  0.93827000000E+00 0. -1.
     999902    2    1    2    0    0 -0.20433896363E-01  0.50156415567E-02  0.65222651650E-02  0.10219018198E+01  0.10216643718E+01 0.  0.
     999903    2    3    3    0    0 -0.12468307429E+00 -0.45131606443E-01 -0.46437502244E-02  0.13426038459E+00  0.20531817721E-01 0.  0.
         14    1    1    2    0    0  0.20433896363E-01 -0.50156415567E-02 -0.65222651650E-02  0.22028180217E-01  0.00000000000E+00 0.  1.
     999901    1    3    3    0    0  0.10424917793E+00  0.50147248000E-01  0.11166015389E-01  0.88764143520E+00  0.88000000000E+00 0. -1.
        -11    1    4    4    0    0 -0.89341333416E-01 -0.28786117661E-01  0.54750266401E-02  0.94025270349E-01  0.51100000000E-03 0. -1.
         11    1    4    4    0    0 -0.35341740872E-01 -0.16345488782E-01 -0.10118776864E-01  0.40235114237E-01  0.51100000000E-03 0.  1.
</event>
<event>
 8    1  0.1093753E+005  0.1043930E+01  0.7957747E-01            NaN
         13   -1    0    0    0    0  0.00000000000E+00  0.00000000000E+00  0.74505805969E-08  0.10566000000E+00  0.10566000000E+00 0. -1.
     999900   -1    0    0    0    0 -0.00000000000E+00 -0.00000000000E+00 -0.74505805969E-08  0.93827000000E+00  0.93827000000E+00 0. -1.
     999902    2    1    2    0    0 -0.23414533004E-01 -0.14652311702E-02  0.13348060964E-02  0.10204317242E+01  0.10201611318E+01 0.  0.
     999903    2    3    3    0    0  0.11596203046E+00  0.34894613817E-01  0.36975595160E-01  0.12800910536E+00  0.18823119702E-01 0.  0.
         14    1    1    2    0    0  0.23414533004E-01  0.14652311702E-02 -0.13348060964E-02  0.23498275798E-01  0.00000000000E+00 0.  1.
     999901    1    3    3    0    0 -0.13937656347E+00 -0.36359844987E-01 -0.35640789063E-01  0.89242261884E+00  0.88000000000E+00 0.  1.
        -11    1    4    4    0    0  0.35324318082E-01  0.19845122660E-01  0.12416921033E-01  0.42380153260E-01  0.51100000000E-03 0.  1.
         11    1    4    4    0    0  0.80637712382E-01  0.15049491157E-01  0.24558674126E-01  0.85628952102E-01  0.51100000000E-03 0. -1.
</event>
<event>
 8    1  0.1093753E+005  0.1043930E+01  0.7957747E-01            NaN
         13   -1    0    0    0    0  0.00000000000E+00  0.00000000000E+00  0.74505805969E-08  0.10566000000E+00  0.10566000000E+00 0. -1.
     999900   -1    0    0    0    0 -0.00000000000E+00 -0.00000000000E+00 -0.74505805969E-08  0.93827000000E+00  0.93827000000E+00 0.  1.
     999902    2    1    2    0    0  0.93766654698E-02 -0.59870315113E-02 -0.20044349136E-01  0.10210052899E+01  0.10207478923E+01 0.  0.
     999903    2    3    3    0    0  0.43999948762E-01 -0.25075301823E-01  0.11744160939E+00  0.12945297925E+00  0.20019389764E-01 0.  0.
         14    1    1    2    0    0 -0.93766654698E-02  0.59870315113E-02  0.20044349136E-01  0.22924710117E-01  0.00000000000E+00 0. -1.
     999901    1    3    3    0    0 -0.34623283292E-01  0.19088270312E-01 -0.13748595853E+00  0.89155231064E+00  0.88000000000E+00 0.  1.
        -11    1    4    4    0    0  0.19410292056E-01 -0.22204230430E-01  0.69304447960E-01  0.75320348611E-01  0.51100000000E-03 0.  1.
         11    1    4    4    0    0  0.24589656705E-01 -0.28710713930E-02  0.48137161432E-01  0.54132630636E-01  0.51100000000E-03 0. -1.
</event>
<event>
 8    1  0.1093753E+005  0.1043930E+01  0.7957747E-01            NaN
         13   -1    0    0    0    0  0.00000000000E+00  0.00000000000E+00  0.74505805969E-08  0.10566000000E+00  0.10566000000E+00 0.  1.
     999900   -1    0    0    0    0 -0.00000000000E+00 -0.00000000000E+00 -0.74505805969E-08  0.93827000000E+00  0.93827000000E+00 0. -1.
     999902    2    1    2    0    0  0.84082254318E-02 -0.31167055822E-02  0.21819996024E-01  0.10203392320E+01  0.10200664802E+01 0.  0.
     999903    2    3    3    0    0 -0.99226186725E-01 -0.80564311382E-01 -0.11973692217E-01  0.12976340047E+00  0.18940073826E-01 0.  0.
         14    1    1    2    0    0 -0.84082254318E-02  0.31167055822E-02 -0.21819996024E-01  0.23590768006E-01  0.00000000000E+00 0. -1.
     999901    1    3    3    0    0  0.10763441216E+00  0.77447605800E-01  0.33793688241E-01  0.89057583152E+00  0.88000000000E+00 0. -1.
        -11    1    4    4    0    0 -0.30173961640E-01 -0.33129705985E-01 -0.10238687722E-01  0.45968872370E-01  0.51100000000E-03 0. -1.
         11    1    4    4    0    0 -0.69052225085E-01 -0.47434605397E-01 -0.17350044942E-02  0.83794528103E-01  0.51100000000E-03 0.  1.
</event>
<event>
 8    1  0.1093753E+005  0.1043930E+01  0.7957747E-01            NaN
         13   -1    0    0    0    0  0.00000000000E+00  0.00000000000E+00  0.74505805969E-08  0.10566000000E+00  0.10566000000E+00 0.  1.
     999900   -1    0    0    0    0 -0.00000000000E+00 -0.00000000000E+00 -0.74505805969E-08  0.93827000000E+00  0.93827000000E+00 0.  1.
     999902    2    1    2    0    0 -0.10305586709E-01  0.16761021274E-01 -0.76267165397E-02  0.10228277784E+01  0.10226100726E+01 0.  0.
     999903    2    3    3    0    0  0.88713409326E-01  0.31107127287E-01  0.89933669770E-01  0.13180106650E+00  0.21112408901E-01 0.  0.
         14    1    1    2    0    0  0.10305586709E-01 -0.16761021274E-01  0.76267165397E-02  0.21102221607E-01  0.00000000000E+00 0.  1.
     999901    1    3    3    0    0 -0.99018996035E-01 -0.14346106013E-01 -0.97560386309E-01  0.89102671189E+00  0.88000000000E+00 0.  1.
        -11    1    4    4    0    0  0.56638991532E-01  0.27749152894E-01  0.68274383092E-01  0.92949681848E-01  0.51100000000E-03 0.  1.
         11    1    4    4    0    0  0.32074417794E-01  0.33579743930E-02  0.21659286677E-01  0.38851384650E-01  0.51100000000E-03 0. -1.
</event>
<event>
 8    1  0.1093753E+005  0.1043930E+01  0.7957747E-01            NaN
         13   -1    0    0    0    0  0.00000000000E+00  0.00000000000E+00  0.74505805969E-08  0.10566000000E+00  0.10566000000E+00 0.  1.
     999900   -1    0    0    0    0 -0.00000000000E+00 -0.00000000000E+00 -0.74505805969E-08  0.93827000000E+00  0.93827000000E+00 0.  1.
     999902    2    1    2    0    0  0.20656663524E-01 -0.13455474922E-01  0.41840251138E-02  0.10189249281E+01  0.10186180617E+01 0.  0.
     999903    2    3    3    0    0  0.75614632561E-02  0.16089587573E-01 -0.12598234454E+00  0.12876332551E+00  0.19808894592E-01 0.  0.
         14    1    1    2    0    0 -0.20656663524E-01  0.13455474922E-01 -0.41840251138E-02  0.25005071875E-01  0.00000000000E+00 0. -1.
     999901    1    3    3    0    0  0.13095200268E-01 -0.29545062495E-01  0.13016636965E+00  0.89016160262E+00  0.88000000000E+00 0. -1.
        -11    1    4    4    0    0  0.13876654256E-01  0.12484819471E-01 -0.10208943149E+00  0.10378316527E+00  0.51100000000E-03 0.  1.
         11    1    4    4    0    0 -0.63151909998E-02  0.36047681021E-02 -0.23892913049E-01  0.24980160236E-01  0.51100000000E-03 0. -1.
</event>
<event>
 8    1  0.1093753E+005  0.1043930E+01  0.7957747E-01            NaN
         13   -1    0    0    0    0  0.00000000000E+00  0.00000000000E+00  0.74505805969E-08  0.10566000000E+00  0.10566000000E+00 0. -1.
     999900   -1    0    0    0    0 -0.00000000000E+00 -0.00000000000E+00 -0.74505805969E-08  0.93827000000E+00  0.93827000000E+00 0.  1.
     999902    2    1    2    0    0 -0.18603202091E-01 -0.13918396400E-01 -0.53675911056E-02  0.10200844151E+01  0.10198056687E+01 0.  0.
     999903    2    3    3    0    0  0.10607136906E+00 -0.68854826623E-01  0.18627748609E-01  0.12927717645E+00  0.19325445619E-01 0.  0.
         14    1    1    2    0    0  0.18603202091E-01  0.13918396400E-01  0.53675911056E-02  0.23845584931E-01  0.00000000000E+00 0.  1.
     999901    1    3    3    0    0 -0.12467457115E+00  0.54936430223E-01 -0.23995339715E-01  0.89080723862E+00  0.88000000000E+00 0. -1.
        -11    1    4    4    0    0  0.51590988822E-01 -0.26697870008E-01  0.16360266841E-01  0.60351684672E-01  0.51100000000E-03 0.  1.
         11    1    4    4    0    0  0.54480380236E-01 -0.42156956615E-01  0.22674817679E-02  0.68925491774E-01  0.51100000000E-03 0. -1.
</event>
<event>
 8    1  0.1093753E+005  0.1043930E+01  0.7957747E-01            NaN
         13   -1    0    0    0    0  0.00000000000E+00  0.00000000000E+00  0.74505805969E-08  0.10566000000E+00  0.10566000000E+00 0.  1.
     999900   -1    0    0    0    0 -0.00000000000E+00 -0.00000000000E+00 -0.74505805969E-08  0.93827000000E+00  0.93827000000E+00 0.  1.
     999902    2    1    2    0    0  0.13298274662E-01 -0.10853133042E-01 -0.18264419672E-01  0.10188656103E+01  0.10185572680E+01 0.  0.
     999903    2    3    3    0    0  0.35724663451E-01 -0.96662478909E-02 -0.12517239923E+00  0.13211104012E+00  0.20384049293E-01 0.  0.
         14    1    1    2    0    0 -0.13298274662E-01  0.10853133042E-01  0.18264419672E-01  0.25064389715E-01  0.00000000000E+00 0.  1.
     999901    1    3    3    0    0 -0.22426388789E-01 -0.11868851515E-02  0.10690797956E+00  0.88675457016E+00  0.88000000000E+00 0. -1.
        -11    1    4    4    0    0  0.25489196266E-01  0.63961686457E-03 -0.57597122072E-01  0.62990458230E-01  0.51100000000E-03 0. -1.
         11    1    4    4    0    0  0.10235467185E-01 -0.10305864755E-01 -0.67575277160E-01  0.69120581892E-01  0.51100000000E-03 0.  1.
</event>
<event>
 8    1  0.1093753E+005  0.1043930E+01  0.7957747E-01            NaN
         13   -1    0    0    0    0  0.00000000000E+00  0.00000000000E+00  0.74505805969E-08  0.10566000000E+00  0.10566000000E+00 0. -1.
     999900   -1    0    0    0    0 -0.00000000000E+00 -0.00000000000E+00 -0.74505805969E-08  0.93827000000E+00  0.93827000000E+00 0. -1.
     999902    2    1    2    0    0 -0.73015352641E-02 -0.71050775341E-02 -0.19852217675E-01  0.10216162130E+01  0.10213724989E+01 0.  0.
     999903    2    3    3    0    0  0.49230972431E-01  0.64339854258E-01 -0.10341170011E+00  0.13297540265E+00  0.20619711360E-01 0.  0.
         14    1    1    2    0    0  0.73015352641E-02  0.71050775341E-02  0.19852217675E-01  0.22313787007E-01  0.00000000000E+00 0. -1.
     999901    1    3    3    0    0 -0.56532507696E-01 -0.71444931792E-01  0.83559482439E-01  0.88864081035E+00  0.88000000000E+00 0.  1.
        -11    1    4    4    0    0  0.27113961634E-01  0.48775465050E-01 -0.77624814239E-01  0.95603796018E-01  0.51100000000E-03 0. -1.
         11    1    4    4    0    0  0.22117010798E-01  0.15564389208E-01 -0.25786885874E-01  0.37371606630E-01  0.51100000000E-03 0.  1.
</event>
<event>
 8    1  0.1093753E+005  0.1043930E+01  0.7957747E-01            NaN
         13   -1    0    0    0    0  0.00000000000E+00  0.00000000000E+00  0.74505805969E-08  0.10566000000E+00  0.10566000000E+00 0. -1.
     999900   -1    0    0    0    0 -0.00000000000E+00 -0.00000000000E+00 -0.74505805969E-08  0.93827000000E+00  0.93827000000E+00 0. -1.
     999902    2    1    2    0    0  0.10538111026E-01 -0.19479414046E-01 -0.27734265605E-02  0.10216098017E+01  0.10213659461E+01 0.  0.
     999903    2    3    3    0    0  0.11374341060E-01 -0.55439306276E-01 -0.11902432368E+00  0.13323595914E+00  0.19548372480E-01 0.  0.
         14    1    1    2    0    0 -0.10538111026E-01  0.19479414046E-01  0.27734265605E-02  0.22320198262E-01  0.00000000000E+00 0.  1.
     999901    1    3    3    0    0 -0.83623003415E-03  0.35959892230E-01  0.11625089712E+00  0.88837384260E+00  0.88000000000E+00 0.  1.
        -11    1    4    4    0    0 -0.39336861373E-02 -0.27956741050E-01 -0.61410440649E-01  0.67591098515E-01  0.51100000000E-03 0. -1.
         11    1    4    4    0    0  0.15308027197E-01 -0.27482565225E-01 -0.57613883028E-01  0.65644860626E-01  0.51100000000E-03 0.  1.
</event>
<event>
 8    1  0.1093753E+005  0.1043930E+01  0.7957747E-01            NaN
         13   -1    0    0    0    0  0.00000000000E+00  0.00000000000E+00  0.74505805969E-08  0.10566000000E+00  0.10566000000E+00 0.  1.
     999900   -1    0    0    0    0 -0.00000000000E+00 -0.00000000000E+00 -0.74505805969E-08  0.93827000000E+00  0.93827000000E+00 0. -1.
     999902    2    1    2    0    0 -0.92843572762E-02  0.15442112203E-01  0.13260003296E-01  0.10215584599E+01  0.10213134686E+01 0.  0.
     999903    2    3    3    0    0  0.84607014468E-01  0.43126346299E-01 -0.86950893349E-01  0.13047808736E+00  0.21115036947E-01 0.  0.
         14    1    1    2    0    0  0.92843572762E-02 -0.15442112203E-01 -0.13260003296E-01  0.22371540106E-01  0.00000000000E+00 0. -1.
     999901    1    3    3    0    0 -0.93891371744E-01 -0.27684234096E-01  0.10021089664E+00  0.89108037253E+00  0.88000000000E+00 0.  1.
        -11    1    4    4    0    0  0.73640590615E-01  0.38218424992E-01 -0.84060468229E-01  0.11811015212E+00  0.51100000000E-03 0. -1.
         11    1    4    4    0    0  0.10966423853E-01  0.49079213074E-02 -0.28904251204E-02  0.12367935238E-01  0.51100000000E-03 0.  1.
</event>
<event>
 7    1  0.1093753E+005  0.1043930E+01  0.7957747E-01            NaN
         13   -1    0    0    0    0  0.00000000000E+00  0.00000000000E+00  0.74505805969E-08  0.10566000000E+00  0.10566000000E+00 0.  1.
     999900   -1    0    0    0    0 -0.00000000000E+00 -0.00000000000E+00 -0.74505805969E-08  0.93827000000E+00  0.93827000000E+00 0. -1.
     999903    2    1    2    0    0 -0.94147143699E-01  0.59502245587E-01  0.28062608657E-02  0.11326320285E+00  0.20407746658E-01 0.  0.
         14    1    1    2    0    0 -0.16964908232E-01  0.31888073916E-01  0.14228211842E-01  0.38821377894E-01  0.00000000000E+00 0. -1.
     999901    1    1    2    0    0  0.11111205193E+00 -0.91390319503E-01 -0.17034472707E-01  0.89184541925E+00  0.88000000000E+00 0.  1.
        -11    1    3    3    0    0 -0.69481031355E-01  0.49761609792E-01  0.92614737825E-02  0.85964338798E-01  0.51100000000E-03 0.  1.
         11    1    3    3    0    0 -0.24666112344E-01  0.97406357945E-02 -0.64552129168E-02  0.27298864054E-01  0.51100000000E-03 0. -1.
</event>
<event>
 8    1  0.1093753E+005  0.1043930E+01  0.7957747E-01            NaN
         13   -1    0    0    0    0  0.00000000000E+00  0.00000000000E+00  0.74505805969E-08  0.10566000000E+00  0.10566000000E+00 0.  1.
     999900   -1    0    0    0    0 -0.00000000000E+00 -0.00000000000E+00 -0.74505805969E-08  0.93827000000E+00  0.93827000000E+00 0.  1.
     999902    2    1    2    0    0 -0.15304188254E-01 -0.40234243829E-02  0.17788703980E-01  0.10201215118E+01  0.10198436423E+01 0.  0.
     999903    2    3    3    0    0  0.75194581115E-01 -0.10244721496E+00  0.20951431860E-01  0.13001630864E+00  0.17765729216E-01 0.  0.
         14    1    1    2    0    0  0.15304188254E-01  0.40234243829E-02 -0.17788703980E-01  0.23808488216E-01  0.00000000000E+00 0. -1.
     999901    1    3    3    0    0 -0.90498769368E-01  0.98423790576E-01 -0.31627278798E-02  0.89010520314E+00  0.88000000000E+00 0. -1.
        -11    1    4    4    0    0  0.43974266704E-01 -0.73205252798E-01  0.16802463008E-01  0.87036366270E-01  0.51100000000E-03 0. -1.
         11    1    4    4    0    0  0.31220314411E-01 -0.29241962161E-01  0.41489688518E-02  0.42979942374E-01  0.51100000000E-03 0.  1.
</event>
<event>
 8    1  0.1093753E+005  0.1043930E+01  0.7957747E-01            NaN
         13   -1    0    0    0    0  0.00000000000E+00  0.00000000000E+00  0.74505805969E-08  0.10566000000E+00  0.10566000000E+00 0. -1.
     999900   -1    0    0    0    0 -0.00000000000E+00 -0.00000000000E+00 -0.74505805969E-08  0.93827000000E+00  0.93827000000E+00 0. -1.
     999902    2    1    2    0    0 -0.11200837605E-01  0.22280298271E-01 -0.31568256749E-02  0.10187936518E+01  0.10184835143E+01 0.  0.
     999903    2    3    3    0    0 -0.25147260203E-02 -0.10250651925E+00 -0.72450611212E-01  0.12725070436E+00  0.20730179892E-01 0.  0.
         14    1    1    2    0    0  0.11200837605E-01 -0.22280298271E-01  0.31568256749E-02  0.25136348232E-01  0.00000000000E+00 0.  1.
     999901    1    3    3    0    0 -0.86861115844E-02  0.12478681752E+00  0.69293785538E-01  0.89154294741E+00  0.88000000000E+00 0. -1.
        -11    1    4    4    0    0  0.46537024483E-02 -0.29341745233E-01 -0.11895995538E-01  0.32005793080E-01  0.51100000000E-03 0.  1.
         11    1    4    4    0    0 -0.71684284687E-02 -0.73164774020E-01 -0.60554615674E-01  0.95244911279E-01  0.51100000000E-03 0. -1.
</event>
<event>
 8    1  0.1093753E+005  0.1043930E+01  0.7957747E-01            NaN
         13   -1    0    0    0    0  0.00000000000E+00  0.00000000000E+00  0.74505805969E-08  0.10566000000E+00  0.10566000000E+00 0. -1.
     999900   -1    0    0    0    0 -0.00000000000E+00 -0.00000000000E+00 -0.74505805969E-08  0.93827000000E+00  0.93827000000E+00 0. -1.
     999902    2    1    2    0    0 -0.19497513490E-01  0.46349753641E-03  0.90623938642E-02  0.10224243067E+01  0.10221981061E+01 0.  0.
     999903    2    3    3    0    0 -0.64937640898E-01  0.10819843507E+00  0.39992550067E-01  0.13415165907E+00  0.21759251205E-01 0.  0.
         14    1    1    2    0    0  0.19497513490E-01 -0.46349753641E-03 -0.90623938642E-02  0.21505693311E-01  0.00000000000E+00 0.  1.
     999901    1    3    3    0    0  0.45440127408E-01 -0.10773493754E+00 -0.30930156202E-01  0.88827264762E+00  0.88000000000E+00 0.  1.
        -11    1    4    4    0    0 -0.52487304541E-01  0.83023674014E-01  0.40012419094E-01  0.10606178571E+00  0.51100000000E-03 0. -1.
         11    1    4    4    0    0 -0.12450336357E-01  0.25174761058E-01 -0.19869027412E-04  0.28089873362E-01  0.51100000000E-03 0.  1.
</event>
<event>
 8    1  0.1093753E+005  0.1043930E+01  0.7957747E-01            NaN
         13   -1    0    0    0    0  0.00000000000E+00  0.00000000000E+00  0.74505805969E-08  0.10566000000E+00  0.10566000000E+00 0.  1.
     999900   -1    0    0    0    0 -0.00000000000E+00 -0.00000000000E+00 -0.74505805969E-08  0.93827000000E+00  0.93827000000E+00 0.  1.
     999902    2    1    2    0    0 -0.14431395522E-01  0.11138901960E-01 -0.15602993747E-01  0.10199342977E+01  0.10196519887E+01 0.  0.
     999903    2    3    3    0    0  0.50662047277E-01 -0.11464134641E+00  0.16769442536E-01  0.12802297826E+00  0.19984679594E-01 0.  0.
         14    1    1    2    0    0  0.14431395522E-01 -0.11138901960E-01  0.15602993747E-01  0.23995702270E-01  0.00000000000E+00 0.  1.
     999901    1    3    3    0    0 -0.65093442799E-01  0.12578024837E+00 -0.32372436283E-01  0.89191131947E+00  0.88000000000E+00 0. -1.
        -11    1    4    4    0    0  0.29678624948E-01 -0.84443460596E-01  0.60323526413E-02  0.89711589082E-01  0.51100000000E-03 0. -1.
         11    1    4    4    0    0  0.20983422329E-01 -0.30197885810E-01  0.10737089895E-01  0.38311389174E-01  0.51100000000E-03 0.  1.
</event>
<event>
 8    1  0.1093753E+005  0.1043930E+01  0.7957747E-01            NaN
         13   -1    0    0    0    0  0.00000000000E+00  0.00000000000E+00  0.74505805969E-08  0.10566000000E+00  0.10566000000E+00 0.  1.
     999900   -1    0    0    0    0 -0.00000000000E+00 -0.00000000000E+00 -0.74505805969E-08  0.93827000000E+00  0.93827000000E+00 0. -1.
     999902    2    1    2    0    0  0.10281605093E-02  0.25400769306E-01  0.11406206917E-02  0.10184828546E+01  0.10181649021E+01 0.  0.
     999903    2    3    3    0    0 -0.12463767175E+00  0.24263721920E-01  0.16082267272E-01  0.12942917391E+00  0.19235236375E-01 0.  0.
         14    1    1    2    0    0 -0.10281605093E-02 -0.25400769306E-01 -0.11406206917E-02  0.25447145438E-01  0.00000000000E+00 0.  1.
     999901    1    3    3    0    0  0.12566583226E+00  0.11370473859E-02 -0.14941646580E-01  0.88905368065E+00  0.88000000000E+00 0. -1.
        -11    1    4    4    0    0 -0.12212321048E-01 -0.27564124878E-02 -0.89360328555E-03  0.12561777064E-01  0.51100000000E-03 0. -1.
         11    1    4    4    0    0 -0.11242535070E+00  0.27020134408E-01  0.16975870558E-01  0.11686739685E+00  0.51100000000E-03 0.  1.
</event>
<event>
 8    1  0.1093753E+005  0.1043930E+01  0.7957747E-01            NaN
         13   -1    0    0    0    0  0.00000000000E+00  0.00000000000E+00  0.74505805969E-08  0.10566000000E+00  0.10566000000E+00 0.  1.
     999900   -1    0    0    0    0 -0.00000000000E+00 -0.00000000000E+00 -0.74505805969E-08  0.93827000000E+00  0.93827000000E+00 0.  1.
     999902    2    1    2    0    0  0.22832193485E-01 -0.21389755381E-02 -0.61888174709E-02  0.10201774057E+01  0.10199008546E+01 0.  0.
     999903    2    3    3    0    0  0.89557802929E-01  0.43140412418E-01 -0.85827764046E-01  0.13290918707E+00  0.20414496737E-01 0.  0.
         14    1    1    2    0    0 -0.22832193485E-01  0.21389755381E-02  0.61888174709E-02  0.23752594329E-01  0.00000000000E+00 0. -1.
     999901    1    3    3    0    0 -0.66725609445E-01 -0.45279387956E-01  0.79638946575E-01  0.88726821860E+00  0.88000000000E+00 0. -1.
        -11    1    4    4    0    0  0.73050228095E-01  0.43296168142E-01 -0.73312569352E-01  0.11218684391E+00  0.51100000000E-03 0.  1.
         11    1    4    4    0    0  0.16507574835E-01 -0.15575572401E-03 -0.12515194694E-01  0.20722343159E-01  0.51100000000E-03 0. -1.
</event>
<event>
 8    1  0.1093753E+005  0.1043930E+01  0.7957747E-01            NaN
         13   -1    0    0    0    0  0.00000000000E+00  0.00000000000E+00  0.74505805969E-08  0.10566000000E+00  0.10566000000E+00 0. -1.
     999900   -1    0    0    0    0 -0.00000000000E+00 -0.00000000000E+00 -0.74505805969E-08  0.93827000000E+00  0.93827000000E+00 0. -1.
     999902    2    1    2    0    0  0.10214017256E-01  0.28163403089E-02 -0.22672993496E-01  0.10189035629E+01  0.10185961653E+01 0.  0.
     999903    2    3    3    0    0  0.57067066155E-01  0.28930433571E-01 -0.11432670452E+00  0.13251902059E+00  0.19926751498E-01 0.  0.
         14    1    1    2    0    0 -0.10214017256E-01 -0.28163403089E-02  0.22672993496E-01  0.25026437128E-01  0.00000000000E+00 0. -1.
     999901    1    3    3    0    0 -0.46853048898E-01 -0.26114093262E-01  0.91653711022E-01  0.88638454229E+00  0.88000000000E+00 0.  1.
        -11    1    4    4    0    0  0.19607579880E-01  0.12890625474E-01 -0.61313570739E-01  0.65652421826E-01  0.51100000000E-03 0.  1.
         11    1    4    4    0    0  0.37459486275E-01  0.16039808096E-01 -0.53013133779E-01  0.66866598761E-01  0.51100000000E-03 0. -1.
</event>
<event>
 8    1  0.1093753E+005  0.1043930E+01  0.7957747E-01            NaN
         13   -1    0    0    0    0  0.00000000000E+00  0.00000000000E+00  0.74505805969E-08  0.10566000000E+00  0.10566000000E+00 0. -1.
     999900   -1    0    0    0    0 -0.00000000000E+00 -0.00000000000E+00 -0.74505805969E-08  0.93827000000E+00  0.93827000000E+00 0.  1.
     999902    2    1    2    0    0  0.46065988020E-03 -0.21395835035E-01  0.96274185428E-02  0.10204634035E+01  0.10201935486E+01 0.  0.
     999903    2    3    3    0    0  0.88213553062E-01 -0.45771335943E-01  0.85431709014E-01  0.13252138637E+00  0.19664556983E-01 0.  0.
         14    1    1    2    0    0 -0.46065988020E-03  0.21395835035E-01 -0.96274185428E-02  0.23466596518E-01  0.00000000000E+00 0. -1.
     999901    1    3    3    0    0 -0.87752893182E-01  0.24375500908E-01 -0.75804290471E-01  0.88794201712E+00  0.88000000000E+00 0.  1.
        -11    1    4    4    0    0  0.55884027221E-01 -0.21615115035E-01  0.41647079241E-01  0.72972447038E-01  0.51100000000E-03 0.  1.
         11    1    4    4    0    0  0.32329525841E-01 -0.24156220908E-01  0.43784629773E-01  0.59548939328E-01  0.51100000000E-03 0. -1.
</event>
<event>
 8    1  0.1093753E+005  0.1043930E+01  0.7957747E-01            NaN
         13   -1    0    0    0    0  0.00000000000E+00  0.00000000000E+00  0.74505805969E-08  0.10566000000E+00  0.10566000000E+00 0. -1.
     999900   -1    0    0    0    0 -0.00000000000E+00 -0.00000000000E+00 -0.74505805969E-08  0.93827000000E+00  0.93827000000E+00 0.  1.
     999902    2    1    2    0    0 -0.10013569524E-01 -0.17480976793E-01 -0.12421129897E-01  0.10202627105E+01  0.10199881655E+01 0.  0.
     999903    2    3    3    0    0  0.29904487427E-01  0.45716403839E-01 -0.11724217900E+00  0.13089506294E+00  0.20087832590E-01 0.  0.
         14    1    1    2    0    0  0.10013569524E-01  0.17480976793E-01  0.12421129897E-01  0.23667289497E-01  0.00000000000E+00 0. -1.
     999901    1    3    3    0    0 -0.39918056951E-01 -0.63197380632E-01  0.10482104910E+00  0.88936764756E+00  0.88000000000E+00 0. -1.
        -11    1    4    4    0    0  0.73631475284E-02  0.68252847426E-02 -0.82802879788E-02  0.13024006425E-01  0.51100000000E-03 0.  1.
         11    1    4    4    0    0  0.22541339899E-01  0.38891119096E-01 -0.10896189102E+00  0.11787105652E+00  0.51100000000E-03 0. -1.
</event>
<event>
 8    1  0.1093753E+005  0.1043930E+01  0.7957747E-01            NaN
         13   -1    0    0    0    0  0.00000000000E+00  0.00000000000E+00  0.74505805969E-08  0.10566000000E+00  0.10566000000E+00 0. -1.
     999900   -1    0    0    0    0 -0.00000000000E+00 -0.00000000000E+00 -0.74505805969E-08  0.93827000000E+00  0.93827000000E+00 0.  1.
     999902    2    1    2    0    0 -0.19143544364E-01  0.85212255011E-02  0.12167162300E-01  0.10196993084E+01  0.10194113759E+01 0.  0.
     999903    2    3    3    0    0 -0.36222128707E-01  0.11233195611E-01 -0.12181096429E+00  0.12939083874E+00  0.21583577921E-01 0.  0.
         14    1    1    2    0    0  0.19143544364E-01 -0.85212255011E-02 -0.12167162300E-01  0.24230691556E-01  0.00000000000E+00 0.  1.
     999901    1    3    3    0    0  0.17078584343E-01 -0.27119701098E-02  0.13397812659E+00  0.89030846971E+00  0.88000000000E+00 0. -1.
        -11    1    4    4    0    0 -0.29139689005E-01  0.33956948348E-02 -0.10845933303E+00  0.11235808943E+00  0.51100000000E-03 0.  1.
         11    1    4    4    0    0 -0.70824397016E-02  0.78375007761E-02 -0.13351631265E-01  0.17032749307E-01  0.51100000000E-03 0. -1.
</event>
<event>
 8    1  0.1093753E+005  0.1043930E+01  0.7957747E-01            NaN
         13   -1    0    0    0    0  0.00000000000E+00  0.00000000000E+00  0.74505805969E-08  0.10566000000E+00  0.10566000000E+00 0. -1.
     999900   -1    0    0    0    0 -0.00000000000E+00 -0.00000000000E+00 -0.74505805969E-08  0.93827000000E+00  0.93827000000E+00 0.  1.
     999902    2    1    2    0    0  0.88264078588E-02 -0.19524189572E-01  0.60548060278E-02  0.10216643284E+01  0.10214216758E+01 0.  0.
     999903    2    3    3    0    0  0.11686734036E-01  0.39532627877E-01 -0.12207498290E+00  0.13042186313E+00  0.20202784770E-01 0.  0.
         14    1    1    2    0    0 -0.88264078588E-02  0.19524189572E-01 -0.60548060278E-02  0.22265671563E-01  0.00000000000E+00 0. -1.
     999901    1    3    3    0    0 -0.28603261768E-02 -0.59056817449E-01  0.12812978893E+00  0.89124246531E+00  0.88000000000E+00 0. -1.
        -11    1    4    4    0    0  0.36415011763E-02  0.19290509551E-01 -0.30384887413E-01  0.36178540513E-01  0.51100000000E-03 0.  1.
         11    1    4    4    0    0  0.80452328593E-02  0.20242118327E-01 -0.91690095490E-01  0.94243322618E-01  0.51100000000E-03 0. -1.
</event>
<event>
 8    1  0.1093753E+005  0.1043930E+01  0.7957747E-01            NaN
         13   -1    0    0    0    0  0.00000000000E+00  0.00000000000E+00  0.74505805969E-08  0.10566000000E+00  0.10566000000E+00 0. -1.
     999900   -1    0    0    0    0 -0.00000000000E+00 -0.00000000000E+00 -0.74505805969E-08  0.93827000000E+00  0.93827000000E+00 0. -1.
     999902    2    1    2    0    0 -0.10314375875E-01 -0.16523745840E-01 -0.13056526338E-01  0.10204801939E+01  0.10202107296E+01 0.  0.
     999903    2    3    3    0    0 -0.75302490226E-01 -0.39464504281E-01 -0.10104070626E+00  0.13341145399E+00  0.19012616894E-01 0.  0.
         14    1    1    2    0    0  0.10314375875E-01  0.16523745840E-01  0.13056526338E-01  0.23449806104E-01  0.00000000000E+00 0. -1.
     999901    1    3    3    0    0  0.64988114351E-01  0.22940758441E-01  0.87984179923E-01  0.88706873991E+00  0.88000000000E+00 0.  1.
        -11    1    4    4    0    0 -0.46224924995E-01 -0.13796454912E-01 -0.53065575119E-01  0.71716819803E-01  0.51100000000E-03 0.  1.
         11    1    4    4    0    0 -0.29077565231E-01 -0.25668049369E-01 -0.47975131142E-01  0.61694634185E-01  0.51100000000E-03 0. -1.
</event>
<event>
 8    1  0.1093753E+005  0.1043930E+01  0.7957747E-01            NaN
         13   -1    0    0    0    0  0.00000000000E+00  0.00000000000E+00  0.74505805969E-08  0.10566000000E+00  0.10566000000E+00 0. -1.
     999900   -1    0    0    0    0 -0.00000000000E+00 -0.00000000000E+00 -0.74505805969E-08  0.93827000000E+00  0.93827000000E+00 0. -1.
     999902    2    1    2    0    0 -0.88440744678E-02  0.55045615643E-02 -0.20922105993E-01  0.10205579575E+01  0.10202902980E+01 0.  0.
     999903    2    3    3    0    0  0.64965125564E-01 -0.57652318435E-01  0.91998670758E-01  0.12804034349E+00  0.19654942887E-01 0.  0.
         14    1    1    2    0    0  0.88440744678E-02 -0.55045615643E-02  0.20922105993E-01  0.23372042495E-01  0.00000000000E+00 0. -1.
     999901    1    3    3    0    0 -0.73809200032E-01  0.63156880000E-01 -0.11292077675E+00  0.89251761401E+00  0.88000000000E+00 0. -1.
        -11    1    4    4    0    0  0.16179402665E-01 -0.26770264380E-01  0.33898038593E-01  0.46127630191E-01  0.51100000000E-03 0. -1.
         11    1    4    4    0    0  0.48785722899E-01 -0.30882054055E-01  0.58100632165E-01  0.81912713302E-01  0.51100000000E-03 0.  1.
</event>
<event>
 8    1  0.1093753E+005  0.1043930E+01  0.7957747E-01            NaN
         13   -1    0    0    0    0  0.00000000000E+00  0.00000000000E+00  0.74505805969E-08  0.10566000000E+00  0.10566000000E+00 0. -1.
     999900   -1    0    0    0    0 -0.00000000000E+00 -0.00000000000E+00 -0.74505805969E-08  0.93827000000E+00  0.93827000000E+00 0. -1.
     999902    2    1    2    0    0 -0.17673245740E-01  0.20775332558E-01  0.25885295398E-02  0.10165318515E+01  0.10161625591E+01 0.  0.
     999903    2    3    3    0    0  0.92101064609E-01  0.65510225724E-01  0.54546496263E-01  0.12706502230E+00  0.19899845765E-01 0.  0.
         14    1    1    2    0    0  0.17673245740E-01 -0.20775332558E-01 -0.25885295398E-02  0.27398148533E-01  0.00000000000E+00 0.  1.
     999901    1    3    3    0    0 -0.10977431035E+00 -0.44734893166E-01 -0.51957966723E-01  0.88946682917E+00  0.88000000000E+00 0. -1.
        -11    1    4    4    0    0  0.62222951527E-01  0.32959808220E-01  0.36754889521E-01  0.79430646978E-01  0.51100000000E-03 0.  1.
         11    1    4    4    0    0  0.29878113082E-01  0.32550417504E-01  0.17791606742E-01  0.47634375323E-01  0.51100000000E-03 0. -1.
</event>
<event>
 8    1  0.1093753E+005  0.1043930E+01  0.7957747E-01            NaN
         13   -1    0    0    0    0  0.00000000000E+00  0.00000000000E+00  0.74505805969E-08  0.10566000000E+00  0.10566000000E+00 0.  1.
     999900   -1    0    0    0    0 -0.00000000000E+00 -0.00000000000E+00 -0.74505805969E-08  0.93827000000E+00  0.93827000000E+00 0.  1.
     999902    2    1    2    0    0  0.10625813493E-01 -0.63332881373E-02 -0.20281541730E-01  0.10201737506E+01  0.10198971134E+01 0.  0.
     999903    2    3    3    0    0 -0.69920040002E-02  0.50088664051E-01  0.11568441768E+00  0.12777217826E+00  0.19623523057E-01 0.  0.
         14    1    1    2    0    0 -0.10625813493E-01  0.63332881373E-02  0.20281541730E-01  0.23756249409E-01  0.00000000000E+00 0.  1.
     999901    1    3    3    0    0  0.17617817493E-01 -0.56421952188E-01 -0.13596595941E+00  0.89240157233E+00  0.88000000000E+00 0.  1.
        -11    1    4    4    0    0 -0.19748081199E-02  0.31298303271E-01  0.47933617764E-01  0.57283300252E-01  0.51100000000E-03 0.  1.
         11    1    4    4    0    0 -0.50171958803E-02  0.18790360780E-01  0.67750799914E-01  0.70488878008E-01  0.51100000000E-03 0. -1.
</event>
<event>
 8    1  0.1093753E+005  0.1043930E+01  0.7957747E-01            NaN
         13   -1    0    0    0    0  0.00000000000E+00  0.00000000000E+00  0.74505805969E-08  0.10566000000E+00  0.10566000000E+00 0. -1.
     999900   -1    0    0    0    0 -0.00000000000E+00 -0.00000000000E+00 -0.74505805969E-08  0.93827000000E+00  0.93827000000E+00 0.  1.
     999902    2    1    2    0    0  0.22659013469E-01 -0.69794187364E-02  0.11361779736E-02  0.10201932336E+01  0.10199170554E+01 0.  0.
     999903    2    3    3    0    0 -0.93370158512E-01  0.58974354021E-02 -0.85426945184E-01  0.12827297015E+00  0.20085458968E-01 0.  0.
         14    1    1    2    0    0 -0.22659013469E-01  0.69794187364E-02 -0.11361779736E-02  0.23736766369E-01  0.00000000000E+00 0. -1.
     999901    1    3    3    0    0  0.11602917198E+00 -0.12876854139E-01  0.86563123157E-01  0.89192026348E+00  0.88000000000E+00 0. -1.
        -11    1    4    4    0    0 -0.52569670026E-01  0.46548832468E-02 -0.34714220819E-01  0.63171009116E-01  0.51100000000E-03 0.  1.
         11    1    4    4    0    0 -0.40800488487E-01  0.12425521553E-02 -0.50712724364E-01  0.65101961031E-01  0.51100000000E-03 0. -1.
</event>
<event>
 8    1  0.1093753E+005  0.1043930E+01  0.7957747E-01            NaN
         13   -1    0    0    0    0  0.00000000000E+00  0.00000000000E+00  0.74505805969E-08  0.10566000000E+00  0.10566000000E+00 0. -1.
     999900   -1    0    0    0    0 -0.00000000000E+00 -0.00000000000E+00 -0.74505805969E-08  0.93827000000E+00  0.93827000000E+00 0.  1.
     999902    2    1    2    0    0  0.19736128257E-02 -0.85284456418E-02  0.21720882732E-01  0.10205114971E+01  0.10202427600E+01 0.  0.
     999903    2    3    3    0    0 -0.96436780208E-01 -0.32792800081E-01  0.82537314691E-01  0.13260834765E+00  0.19928503132E-01 0.  0.
         14    1    1    2    0    0 -0.19736128257E-02  0.85284456418E-02 -0.21720882732E-01  0.23418502927E-01  0.00000000000E+00 0.  1.
     999901    1    3    3    0    0  0.98410393034E-01  0.24264354439E-01 -0.60816431958E-01  0.88790314942E+00  0.88000000000E+00 0.  1.
        -11    1    4    4    0    0 -0.59541405888E-01 -0.11952973310E-01  0.55988920883E-01  0.82601894462E-01  0.51100000000E-03 0. -1.
         11    1    4    4    0    0 -0.36895374320E-01 -0.20839826771E-01  0.26548393808E-01  0.50006453192E-01  0.51100000000E-03 0.  1.
</event>
<event>
 8    1  0.1093753E+005  0.1043930E+01  0.7957747E-01            NaN
         13   -1    0    0    0    0  0.00000000000E+00  0.00000000000E+00  0.74505805969E-08  0.10566000000E+00  0.10566000000E+00 0. -1.
     999900   -1    0    0    0    0 -0.00000000000E+00 -0.00000000000E+00 -0.74505805969E-08  0.93827000000E+00  0.93827000000E+00 0.  1.
     999902    2    1    2    0    0  0.20312659561E-02 -0.27820678938E-02  0.23901471085E-01  0.10197815785E+01  0.10194956211E+01 0.  0.
     999903    2    3    3    0    0 -0.99893245583E-01 -0.41704564652E-02 -0.77283589372E-01  0.12813761917E+00  0.21223643395E-01 0.  0.
         14    1    1    2    0    0 -0.20312659561E-02  0.27820678938E-02 -0.23901471085E-01  0.24148421546E-01  0.00000000000E+00 0.  1.
     999901    1    3    3    0    0  0.10192451154E+00  0.13883885714E-02  0.10118506046E+00  0.89164395929E+00  0.88000000000E+00 0. -1.
        -11    1    4    4    0    0 -0.56748137756E-01 -0.10162552611E-01 -0.35094666044E-01  0.67494631787E-01  0.51100000000E-03 0. -1.
         11    1    4    4    0    0 -0.43145107828E-01  0.59920961456E-02 -0.42188923328E-01  0.60642987379E-01  0.51100000000E-03 0.  1.
</event>
<event>
 8    1  0.1093753E+005  0.1043930E+01  0.7957747E-01            NaN
         13   -1    0    0    0    0  0.00000000000E+00  0.00000000000E+00  0.74505805969E-08  0.10566000000E+00  0.10566000000E+00 0.  1.
     999900   -1    0    0    0    0 -0.00000000000E+00 -0.00000000000E+00 -0.74505805969E-08  0.93827000000E+00  0.93827000000E+00 0. -1.
     999902    2    1    2    0    0  0.72886356325E-02  0.20173919909E-01 -0.62367333810E-02  0.10215915109E+01  0.10213472509E+01 0.  0.
     999903    2    3    3    0    0  0.11385594155E+00  0.14243328285E-01 -0.64766958903E-01  0.13321234074E+00  0.19614304301E-01 0.  0.
         14    1    1    2    0    0 -0.72886356325E-02 -0.20173919909E-01  0.62367333810E-02  0.22338489142E-01  0.00000000000E+00 0.  1.
     999901    1    3    3    0    0 -0.10656730591E+00  0.59305916241E-02  0.58530225522E-01  0.88837917012E+00  0.88000000000E+00 0.  1.
        -11    1    4    4    0    0  0.31649715576E-01  0.74593215335E-02 -0.27951205619E-01  0.42882129032E-01  0.51100000000E-03 0. -1.
         11    1    4    4    0    0  0.82206225969E-01  0.67840067510E-02 -0.36815753284E-01  0.90330211704E-01  0.51100000000E-03 0.  1.
</event>
<event>
 8    1  0.1093753E+005  0.1043930E+01  0.7957747E-01            NaN
         13   -1    0    0    0    0  0.00000000000E+00  0.00000000000E+00  0.74505805969E-08  0.10566000000E+00  0.10566000000E+00 0.  1.
     999900   -1    0    0    0    0 -0.00000000000E+00 -0.00000000000E+00 -0.74505805969E-08  0.93827000000E+00  0.93827000000E+00 0. -1.
     999902    2    1    2    0    0 -0.11662581304E-01 -0.15909997653E-01  0.33662938503E-02  0.10239181095E+01  0.10237225304E+01 0.  0.
     999903    2    3    3    0    0  0.67863382593E-01 -0.69506835543E-01 -0.89919282196E-01  0.13380620715E+00  0.19544433408E-01 0.  0.
         14    1    1    2    0    0  0.11662581304E-01  0.15909997653E-01 -0.33662938503E-02  0.20011890522E-01  0.00000000000E+00 0. -1.
     999901    1    3    3    0    0 -0.79525963897E-01  0.53596837890E-01  0.93285576047E-01  0.89011190233E+00  0.88000000000E+00 0.  1.
        -11    1    4    4    0    0  0.66337510612E-01 -0.61288686928E-01 -0.78625145554E-01  0.11974616108E+00  0.51100000000E-03 0.  1.
         11    1    4    4    0    0  0.15258719815E-02 -0.82181486153E-02 -0.11294136642E-01  0.14060046069E-01  0.51100000000E-03 0. -1.
</event>
<event>
 8    1  0.1093753E+005  0.1043930E+01  0.7957747E-01            NaN
         13   -1    0    0    0    0  0.00000000000E+00  0.00000000000E+00  0.74505805969E-08  0.10566000000E+00  0.10566000000E+00 0. -1.
     999900   -1    0    0    0    0 -0.00000000000E+00 -0.00000000000E+00 -0.74505805969E-08  0.93827000000E+00  0.93827000000E+00 0. -1.
     999902    2    1    2    0    0  0.17333427652E-01 -0.52302565438E-02  0.15153013045E-01  0.10203203176E+01  0.10200471232E+01 0.  0.
     999903    2    3    3    0    0  0.46980445503E-01 -0.56077673000E-01  0.10812706045E+00  0.13346712858E+00  0.27751496176E-01 0.  0.
         14    1    1    2    0    0 -0.17333427652E-01  0.52302565438E-02 -0.15153013045E-01  0.23609682379E-01  0.00000000000E+00 0.  1.
     999901    1    3    3    0    0 -0.29647017851E-01  0.50847416456E-01 -0.92974047405E-01  0.88685318904E+00  0.88000000000E+00 0. -1.
        -11    1    4    4    0    0  0.12665232366E-01 -0.17837850847E-01  0.56673987623E-01  0.60751946700E-01  0.51100000000E-03 0. -1.
         11    1    4    4    0    0  0.34315213137E-01 -0.38239822154E-01  0.51453072827E-01  0.72715181877E-01  0.51100000000E-03 0.  1.
</event>
<event>
 8    1  0.1093753E+005  0.1043930E+01  0.7957747E-01            NaN
         13   -1    0    0    0    0  0.00000000000E+00  0.00000000000E+00  0.74505805969E-08  0.10566000000E+00  0.10566000000E+00 0.  1.
     999900   -1    0    0    0    0 -0.00000000000E+00 -0.00000000000E+00 -0.74505805969E-08  0.93827000000E+00  0.93827000000E+00 0. -1.
     999902    2    1    2    0    0  0.39713849383E-02  0.16241262370E-01 -0.12123566212E-01  0.10232773643E+01  0.10230689288E+01 0.  0.
     999903    2    3    3    0    0  0.91672075238E-01 -0.89240949547E-01 -0.29807995995E-01  0.13247399257E+00  0.17120912021E-01 0.  0.
         14    1    1    2    0    0 -0.39713849383E-02 -0.16241262370E-01  0.12123566212E-01  0.20652635652E-01  0.00000000000E+00 0.  1.
     999901    1    3    3    0    0 -0.87700690299E-01  0.10548221192E+00  0.17684429783E-01  0.89080337178E+00  0.88000000000E+00 0. -1.
        -11    1    4    4    0    0  0.16872214972E-01 -0.23820141161E-01 -0.19038839833E-02  0.29256736971E-01  0.51100000000E-03 0. -1.
         11    1    4    4    0    0  0.74799860266E-01 -0.65420808386E-01 -0.27904112012E-01  0.10321725560E+00  0.51100000000E-03 0.  1.
</event>
<event>
 8    1  0.1093753E+005  0.1043930E+01  0.7957747E-01            NaN
         13   -1    0    0    0    0  0.00000000000E+00  0.00000000000E+00  0.74505805969E-08  0.10566000000E+00  0.10566000000E+00 0.  1.
     999900   -1    0    0    0    0 -0.00000000000E+00 -0.00000000000E+00 -0.74505805969E-08  0.93827000000E+00  0.93827000000E+00 0.  1.
     999902    2    1    2    0    0  0.82541405005E-02 -0.21211954296E-01 -0.73267910940E-02  0.10200185026E+01  0.10197381948E+01 0.  0.
     999903    2    3    3    0    0 -0.71271597739E-01 -0.48470260204E-01  0.95371293843E-01  0.13006667528E+00  0.19815386987E-01 0.  0.
         14    1    1    2    0    0 -0.82541405005E-02  0.21211954296E-01  0.73267910940E-02  0.23911497406E-01  0.00000000000E+00 0. -1.
     999901    1    3    3    0    0  0.79525738240E-01  0.27258305908E-01 -0.10269808494E+00  0.88995182731E+00  0.88000000000E+00 0.  1.
        -11    1    4    4    0    0 -0.45815312415E-02 -0.39768983538E-02  0.16564032577E-01  0.17647505355E-01  0.51100000000E-03 0. -1.
         11    1    4    4    0    0 -0.66690066498E-01 -0.44493361850E-01  0.78807261266E-01  0.11241916993E+00  0.51100000000E-03 0.  1.
</event>
<event>
 8    1  0.1093753E+005  0.1043930E+01  0.7957747E-01            NaN
         13   -1    0    0    0    0  0.00000000000E+00  0.00000000000E+00  0.74505805969E-08  0.10566000000E+00  0.10566000000E+00 0. -1.
     999900   -1    0    0    0    0 -0.00000000000E+00 -0.00000000000E+00 -0.74505805969E-08  0.93827000000E+00  0.93827000000E+00 0. -1.
     999902    2    1    2    0    0  0.23186505689E-01  0.13256893099E-02  0.37890898417E-02  0.10203985593E+01  0.10201271936E+01 0.  0.
     999903    2    3    3    0    0  0.11596927421E+00 -0.61043908153E-01  0.14167994696E-01  0.13326478673E+00  0.19584177892E-01 0.  0.
         14    1    1    2    0    0 -0.23186505689E-01 -0.13256893099E-02 -0.37890898417E-02  0.23531440671E-01  0.00000000000E+00 0. -1.
     999901    1    3    3    0    0 -0.92782768524E-01  0.62369597463E-01 -0.10378904854E-01  0.88713377260E+00  0.88000000000E+00 0.  1.
        -11    1    4    4    0    0  0.69631559178E-01 -0.47034743836E-01  0.11035102654E-01  0.84751730205E-01  0.51100000000E-03 0. -1.
         11    1    4    4    0    0  0.46337715036E-01 -0.14009164317E-01  0.31328920426E-02  0.48513056523E-01  0.51100000000E-03 0.  1.
</event>
<event>
 8    1  0.1093753E+005  0.1043930E+01  0.7957747E-01            NaN
         13   -1    0    0    0    0  0.00000000000E+00  0.00000000000E+00  0.74505805969E-08  0.10566000000E+00  0.10566000000E+00 0. -1.
     999900   -1    0    0    0    0 -0.00000000000E+00 -0.00000000000E+00 -0.74505805969E-08  0.93827000000E+00  0.93827000000E+00 0.  1.
     999902    2    1    2    0    0  0.13013231399E-01  0.16005338876E-01 -0.19550467449E-02  0.10232095446E+01  0.10229997238E+01 0.  0.
     999903    2    3    3    0    0 -0.65458798350E-01 -0.48889663249E-02  0.11271581634E+00  0.13206206058E+00  0.20658565272E-01 0.  0.
         14    1    1    2    0    0 -0.13013231399E-01 -0.16005338876E-01  0.19550467449E-02  0.20720455394E-01  0.00000000000E+00 0. -1.
     999901    1    3    3    0    0  0.78472029749E-01  0.20894305200E-01 -0.11467086308E+00  0.89114748402E+00  0.88000000000E+00 0.  1.
        -11    1    4    4    0    0 -0.35463653937E-01  0.44867522536E-02  0.74090319257E-01  0.82264440829E-01  0.51100000000E-03 0. -1.
         11    1    4    4    0    0 -0.29995144413E-01 -0.93757185785E-02  0.38625497081E-01  0.49797619752E-01  0.51100000000E-03 0.  1.
</event>
<event>
 8    1  0.1093753E+005  0.1043930E+01  0.7957747E-01            NaN
         13   -1    0    0    0    0  0.00000000000E+00  0.00000000000E+00  0.74505805969E-08  0.10566000000E+00  0.10566000000E+00 0.  1.
     999900   -1    0    0    0    0 -0.00000000000E+00 -0.00000000000E+00 -0.74505805969E-08  0.93827000000E+00  0.93827000000E+00 0. -1.
     999902    2    1    2    0    0  0.17944195191E-01 -0.84885554977E-02  0.15426495335E-01  0.10187898633E+01  0.10184796312E+01 0.  0.
     999903    2    3    3    0    0 -0.10297124976E+00  0.71374424092E-02 -0.69481701113E-01  0.12633587654E+00  0.21886652357E-01 0.  0.
         14    1    1    2    0    0 -0.17944195191E-01  0.84885554977E-02 -0.15426495335E-01  0.25140136710E-01  0.00000000000E+00 0. -1.
     999901    1    3    3    0    0  0.12091544495E+00 -0.15625997907E-01  0.84908196448E-01  0.89245398675E+00  0.88000000000E+00 0.  1.
        -11    1    4    4    0    0 -0.90166866809E-01 -0.10280155321E-02 -0.57072664803E-01  0.10671771584E+00  0.51100000000E-03 0. -1.
         11    1    4    4    0    0 -0.12804382949E-01  0.81654579413E-02 -0.12409036309E-01  0.19618160700E-01  0.51100000000E-03 0.  1.
</event>
<event>
 8    1  0.1093753E+005  0.1043930E+01  0.7957747E-01            NaN
         13   -1    0    0    0    0  0.00000000000E+00  0.00000000000E+00  0.74505805969E-08  0.10566000000E+00  0.10566000000E+00 0.  1.
     999900   -1    0    0    0    0 -0.00000000000E+00 -0.00000000000E+00 -0.74505805969E-08  0.93827000000E+00  0.93827000000E+00 0.  1.
     999902    2    1    2    0    0  0.56647044427E-02  0.93806712073E-02  0.13078827983E-01  0.10268671277E+01  0.10267253559E+01 0.  0.
     999903    2    3    3    0    0 -0.13151562945E+00  0.14417431417E-01 -0.22267215705E-01  0.13552367217E+00  0.19147159192E-01 0.  0.
         14    1    1    2    0    0 -0.56647044427E-02 -0.93806712073E-02 -0.13078827983E-01  0.17062872271E-01  0.00000000000E+00 0. -1.
     999901    1    3    3    0    0  0.13718033389E+00 -0.50367602098E-02  0.35346043688E-01  0.89134345556E+00  0.88000000000E+00 0. -1.
        -11    1    4    4    0    0 -0.58380369471E-01  0.15520347684E-01 -0.71443473516E-02  0.60831336923E-01  0.51100000000E-03 0. -1.
         11    1    4    4    0    0 -0.73135259980E-01 -0.11029162671E-02 -0.15122868353E-01  0.74692335248E-01  0.51100000000E-03 0.  1.
</event>
<event>
 8    1  0.1093753E+005  0.1043930E+01  0.7957747E-01            NaN
         13   -1    0    0    0    0  0.00000000000E+00  0.00000000000E+00  0.74505805969E-08  0.10566000000E+00  0.10566000000E+00 0.  1.
     999900   -1    0    0    0    0 -0.00000000000E+00 -0.00000000000E+00 -0.74505805969E-08  0.93827000000E+00  0.93827000000E+00 0. -1.
     999902    2    1    2    0    0  0.84018323996E-02  0.18772764463E-01  0.92620822524E-02  0.10213735455E+01  0.10211244419E+01 0.  0.
     999903    2    3    3    0    0 -0.38699954659E-01  0.12618549586E+00  0.27650543061E-02  0.13356822639E+00  0.20306642285E-01 0.  0.
         14    1    1    2    0    0 -0.84018323996E-02 -0.18772764463E-01 -0.92620822524E-02  0.22556454528E-01  0.00000000000E+00 0. -1.
     999901    1    3    3    0    0  0.47101787059E-01 -0.10741273140E+00  0.64970279462E-02  0.88780531908E+00  0.88000000000E+00 0.  1.
        -11    1    4    4    0    0 -0.18483904826E-01  0.91805170212E-01  0.24102797455E-02  0.93679851541E-01  0.51100000000E-03 0.  1.
         11    1    4    4    0    0 -0.20216049832E-01  0.34380325647E-01  0.35477456063E-03  0.39888374853E-01  0.51100000000E-03 0. -1.
</event>
<event>
 8    1  0.1093753E+005  0.1043930E+01  0.7957747E-01            NaN
         13   -1    0    0    0    0  0.00000000000E+00  0.00000000000E+00  0.74505805969E-08  0.10566000000E+00  0.10566000000E+00 0. -1.
     999900   -1    0    0    0    0 -0.00000000000E+00 -0.00000000000E+00 -0.74505805969E-08  0.93827000000E+00  0.93827000000E+00 0. -1.
     999902    2    1    2    0    0 -0.20119664007E-01  0.14229296429E-01 -0.13621014282E-02  0.10192494595E+01  0.10189506032E+01 0.  0.
     999903    2    3    3    0    0 -0.16411673700E-01 -0.64341142590E-01 -0.10891608654E+00  0.12921860458E+00  0.20630273898E-01 0.  0.
         14    1    1    2    0    0  0.20119664007E-01 -0.14229296429E-01  0.13621014282E-02  0.24680540450E-01  0.00000000000E+00 0.  1.
     999901    1    3    3    0    0 -0.37079903073E-02  0.78570439018E-01  0.10755398511E+00  0.89003085497E+00  0.88000000000E+00 0.  1.
        -11    1    4    4    0    0 -0.15072280869E-01 -0.21375646957E-01 -0.47917939497E-01  0.54593790673E-01  0.51100000000E-03 0. -1.
         11    1    4    4    0    0 -0.13393928308E-02 -0.42965495633E-01 -0.60998147038E-01  0.74624813910E-01  0.51100000000E-03 0.  1.
</event>
<event>
 8    1  0.1093753E+005  0.1043930E+01  0.7957747E-01            NaN
         13   -1    0    0    0    0  0.00000000000E+00  0.00000000000E+00  0.74505805969E-08  0.10566000000E+00  0.10566000000E+00 0. -1.
     999900   -1    0    0    0    0 -0.00000000000E+00 -0.00000000000E+00 -0.74505805969E-08  0.93827000000E+00  0.93827000000E+00 0.  1.
     999902    2    1    2    0    0 -0.69345971318E-03 -0.35296777516E-02  0.23377887332E-01  0.10202769848E+01  0.10200027748E+01 0.  0.
     999903    2    3    3    0    0 -0.24199101562E-01 -0.10999542777E+00  0.66904323441E-01  0.13248082478E+00  0.19758284150E-01 0.  0.
         14    1    1    2    0    0  0.69345971318E-03  0.35296777516E-02 -0.23377887332E-01  0.23653015189E-01  0.00000000000E+00 0.  1.
     999901    1    3    3    0    0  0.23505641849E-01  0.10646575002E+00 -0.43526436109E-01  0.88779616003E+00  0.88000000000E+00 0.  1.
        -11    1    4    4    0    0  0.10768974000E-02 -0.37971280028E-01  0.23505940774E-01  0.44674021395E-01  0.51100000000E-03 0. -1.
         11    1    4    4    0    0 -0.25275998962E-01 -0.72024147742E-01  0.43398382668E-01  0.87806803385E-01  0.51100000000E-03 0.  1.
</event>
<event>
 8    1  0.1093753E+005  0.1043930E+01  0.7957747E-01            NaN
         13   -1    0    0    0    0  0.00000000000E+00  0.00000000000E+00  0.74505805969E-08  0.10566000000E+00  0.10566000000E+00 0. -1.
     999900   -1    0    0    0    0 -0.00000000000E+00 -0.00000000000E+00 -0.74505805969E-08  0.93827000000E+00  0.93827000000E+00 0.  1.
     999902    2    1    2    0    0  0.23269822342E-01 -0.60948712071E-02 -0.41590618582E-02  0.10195183249E+01  0.10192260225E+01 0.  0.
     999903    2    3    3    0    0  0.11505933084E+00 -0.40202515334E-01 -0.49700473963E-01  0.13291657354E+00  0.18487470288E-01 0.  0.
         14    1    1    2    0    0 -0.23269822342E-01  0.60948712071E-02  0.41590618582E-02  0.24411675125E-01  0.00000000000E+00 0.  1.
     999901    1    3    3    0    0 -0.91789508494E-01  0.34107644127E-01  0.45541412104E-01  0.88660175134E+00  0.88000000000E+00 0. -1.
        -11    1    4    4    0    0  0.67730122518E-01 -0.32997145228E-01 -0.32325954641E-01  0.81984203076E-01  0.51100000000E-03 0.  1.
         11    1    4    4    0    0  0.47329208317E-01 -0.72053701059E-02 -0.17374519322E-01  0.50932370462E-01  0.51100000000E-03 0. -1.
</event>
<event>
 8    1  0.1093753E+005  0.1043930E+01  0.7957747E-01            NaN
         13   -1    0    0    0    0  0.00000000000E+00  0.00000000000E+00  0.74505805969E-08  0.10566000000E+00  0.10566000000E+00 0.  1.
     999900   -1    0    0    0    0 -0.00000000000E+00 -0.00000000000E+00 -0.74505805969E-08  0.93827000000E+00  0.93827000000E+00 0.  1.
     999902    2    1    2    0    0  0.14474729406E-01 -0.15434257808E-01  0.11502127419E-01  0.10198461249E+01  0.10195617124E+01 0.  0.
     999903    2    3    3    0    0 -0.80989661648E-01 -0.87638692593E-01 -0.46564181897E-01  0.12984689644E+00  0.21263295717E-01 0.  0.
         14    1    1    2    0    0 -0.14474729406E-01  0.15434257808E-01 -0.11502127419E-01  0.24083875116E-01  0.00000000000E+00 0. -1.
     999901    1    3    3    0    0  0.95464391054E-01  0.72204434786E-01  0.58066309316E-01  0.88999922845E+00  0.88000000000E+00 0.  1.
        -11    1    4    4    0    0 -0.46839141931E-01 -0.35252722351E-01 -0.20689704566E-01  0.62169000684E-01  0.51100000000E-03 0.  1.
         11    1    4    4    0    0 -0.34150519718E-01 -0.52385970243E-01 -0.25874477331E-01  0.67677895752E-01  0.51100000000E-03 0. -1.
</event>
<event>
 8    1  0.1093753E+005  0.1043930E+01  0.7957747E-01            NaN
         13   -1    0    0    0    0  0.00000000000E+00  0.00000000000E+00  0.74505805969E-08  0.10566000000E+00  0.10566000000E+00 0. -1.
     999900   -1    0    0    0    0 -0.00000000000E+00 -0.00000000000E+00 -0.74505805969E-08  0.93827000000E+00  0.93827000000E+00 0.  1.
     999902    2    1    2    0    0  0.11357627858E-01 -0.40827771271E-02  0.20121217077E-01  0.10204666636E+01  0.10201968846E+01 0.  0.
     999903    2    3    3    0    0 -0.46563490890E-01 -0.45092856983E-01 -0.10911730443E+00  0.12820029186E+00  0.18088788612E-01 0.  0.
         14    1    1    2    0    0 -0.11357627858E-01  0.40827771271E-02 -0.20121217077E-01  0.23463336427E-01  0.00000000000E+00 0.  1.
     999901    1    3    3    0    0  0.57921118748E-01  0.41010079856E-01  0.12923852150E+00  0.89226637171E+00  0.88000000000E+00 0. -1.
        -11    1    4    4    0    0 -0.22714367610E-01 -0.33802577149E-01 -0.61628783363E-01  0.73871000924E-01  0.51100000000E-03 0. -1.
         11    1    4    4    0    0 -0.23849123280E-01 -0.11290279835E-01 -0.47488521063E-01  0.54329290937E-01  0.51100000000E-03 0.  1.
</event>
<event>
 8    1  0.1093753E+005  0.1043930E+01  0.7957747E-01            NaN
         13   -1    0    0    0    0  0.00000000000E+00  0.00000000000E+00  0.74505805969E-08  0.10566000000E+00  0.10566000000E+00 0. -1.
     999900   -1    0    0    0    0 -0.00000000000E+00 -0.00000000000E+00 -0.74505805969E-08  0.93827000000E+00  0.93827000000E+00 0. -1.
     999902    2    1    2    0    0  0.17130485582E-01 -0.82802435450E-02  0.41647642978E-02  0.10244528023E+01  0.10242676324E+01 0.  0.
     999903    2    3    3    0    0  0.47951046404E-02 -0.13387027795E+00 -0.49669041100E-02  0.13540364406E+00  0.19111052828E-01 0.  0.
         14    1    1    2    0    0 -0.17130485582E-01  0.82802435450E-02 -0.41647642978E-02  0.19477197722E-01  0.00000000000E+00 0.  1.
     999901    1    3    3    0    0  0.12335380942E-01  0.12559003441E+00  0.91316684078E-02  0.88904915822E+00  0.88000000000E+00 0.  1.
        -11    1    4    4    0    0  0.13168841093E-03 -0.65096628552E-01 -0.11701136322E-01  0.66142014657E-01  0.51100000000E-03 0. -1.
         11    1    4    4    0    0  0.46634162295E-02 -0.68773649399E-01  0.67342322121E-02  0.69261629400E-01  0.51100000000E-03 0.  1.
</event>
<event>
 8    1  0.1093753E+005  0.1043930E+01  0.7957747E-01            NaN
         13   -1    0    0    0    0  0.00000000000E+00  0.00000000000E+00  0.74505805969E-08  0.10566000000E+00  0.10566000000E+00 0. -1.
     999900   -1    0    0    0    0 -0.00000000000E+00 -0.00000000000E+00 -0.74505805969E-08  0.93827000000E+00  0.93827000000E+00 0.  1.
     999902    2    1    2    0    0 -0.15389435346E-01  0.14865175578E-01  0.10302486148E-01  0.10201823815E+01  0.10199059477E+01 0.  0.
     999903    2    3    3    0    0 -0.82137533208E-01  0.98803905899E-02  0.10184023713E+00  0.13290603415E+00  0.21175068710E-01 0.  0.
         14    1    1    2    0    0  0.15389435346E-01 -0.14865175578E-01 -0.10302486148E-01  0.23747618534E-01  0.00000000000E+00 0.  1.
     999901    1    3    3    0    0  0.66748097862E-01  0.49847849879E-02 -0.91537750983E-01  0.88727634732E+00  0.88000000000E+00 0.  1.
        -11    1    4    4    0    0 -0.28982493043E-01  0.13646324614E-01  0.35702506221E-01  0.47970169375E-01  0.51100000000E-03 0.  1.
         11    1    4    4    0    0 -0.53155040166E-01 -0.37659340246E-02  0.66137730911E-01  0.84935864775E-01  0.51100000000E-03 0. -1.
</event>
<event>
 8    1  0.1093753E+005  0.1043930E+01  0.7957747E-01            NaN
         13   -1    0    0    0    0  0.00000000000E+00  0.00000000000E+00  0.74505805969E-08  0.10566000000E+00  0.10566000000E+00 0.  1.
     999900   -1    0    0    0    0 -0.00000000000E+00 -0.00000000000E+00 -0.74505805969E-08  0.93827000000E+00  0.93827000000E+00 0. -1.
     999902    2    1    2    0    0  0.17302223927E-02  0.25135948306E-01 -0.30405631257E-02  0.10185517694E+01  0.10182355583E+01 0.  0.
     999903    2    3    3    0    0 -0.32382599951E-01 -0.18582788083E-01  0.12085145762E+00  0.12814498290E+00  0.20545292399E-01 0.  0.
         14    1    1    2    0    0 -0.17302223927E-02 -0.25135948306E-01  0.30405631257E-02  0.25378230649E-01  0.00000000000E+00 0.  1.
     999901    1    3    3    0    0  0.34112822343E-01  0.43718736389E-01 -0.12389202075E+00  0.89040678645E+00  0.88000000000E+00 0. -1.
        -11    1    4    4    0    0 -0.74146428418E-02  0.25060496761E-02  0.43010184902E-01  0.43719496106E-01  0.51100000000E-03 0.  1.
         11    1    4    4    0    0 -0.24967957109E-01 -0.21088837759E-01  0.77841272720E-01  0.84425486790E-01  0.51100000000E-03 0. -1.
</event>
<event>
 8    1  0.1093753E+005  0.1043930E+01  0.7957747E-01            NaN
         13   -1    0    0    0    0  0.00000000000E+00  0.00000000000E+00  0.74505805969E-08  0.10566000000E+00  0.10566000000E+00 0. -1.
     999900   -1    0    0    0    0 -0.00000000000E+00 -0.00000000000E+00 -0.74505805969E-08  0.93827000000E+00  0.93827000000E+00 0.  1.
     999902    2    1    2    0    0 -0.19993397020E-01 -0.65612864093E-02 -0.30768237942E-02  0.10226637533E+01  0.10224426141E+01 0.  0.
     999903    2    3    3    0    0 -0.82341973768E-01  0.81540679287E-02  0.10367242098E+00  0.13390096834E+00  0.18297786293E-01 0.  0.
         14    1    1    2    0    0  0.19993397020E-01  0.65612864093E-02  0.30768237942E-02  0.21266246693E-01  0.00000000000E+00 0.  1.
     999901    1    3    3    0    0  0.62348576749E-01 -0.14715354338E-01 -0.10674924478E+00  0.88876278496E+00  0.88000000000E+00 0. -1.
        -11    1    4    4    0    0 -0.45209864749E-01  0.49631455044E-03  0.43270451272E-01  0.62584113583E-01  0.51100000000E-03 0. -1.
         11    1    4    4    0    0 -0.37132109020E-01  0.76577533782E-02  0.60401969710E-01  0.71316854760E-01  0.51100000000E-03 0.  1.
</event>
<event>
 8    1  0.1093753E+005  0.1043930E+01  0.7957747E-01            NaN
         13   -1    0    0    0    0  0.00000000000E+00  0.00000000000E+00  0.74505805969E-08  0.10566000000E+00  0.10566000000E+00 0.  1.
     999900   -1    0    0    0    0 -0.00000000000E+00 -0.00000000000E+00 -0.74505805969E-08  0.93827000000E+00  0.93827000000E+00 0. -1.
     999902    2    1    2    0    0  0.22353041659E-01  0.79734488934E-04 -0.76100329404E-02  0.10203169225E+01  0.10200436485E+01 0.  0.
     999903    2    3    3    0    0 -0.12377897431E+00  0.11496856819E-01 -0.23526930593E-01  0.12805111880E+00  0.19752477393E-01 0.  0.
         14    1    1    2    0    0 -0.22353041659E-01 -0.79734488934E-04  0.76100329404E-02  0.23613077529E-01  0.00000000000E+00 0.  1.
     999901    1    3    3    0    0  0.14613201597E+00 -0.11417122330E-01  0.15916897652E-01  0.89226580367E+00  0.88000000000E+00 0.  1.
        -11    1    4    4    0    0 -0.49416193150E-01  0.14221072352E-01 -0.11046277460E-01  0.52597342243E-01  0.51100000000E-03 0. -1.
         11    1    4    4    0    0 -0.74362781164E-01 -0.27242155327E-02 -0.12480653132E-01  0.75453776554E-01  0.51100000000E-03 0.  1.
</event>
<event>
 8    1  0.1093753E+005  0.1043930E+01  0.7957747E-01            NaN
         13   -1    0    0    0    0  0.00000000000E+00  0.00000000000E+00  0.74505805969E-08  0.10566000000E+00  0.10566000000E+00 0. -1.
     999900   -1    0    0    0    0 -0.00000000000E+00 -0.00000000000E+00 -0.74505805969E-08  0.93827000000E+00  0.93827000000E+00 0. -1.
     999902    2    1    2    0    0  0.18734875534E-01  0.14693447152E-03 -0.13699647154E-01  0.10207201425E+01  0.10204562273E+01 0.  0.
     999903    2    3    3    0    0  0.82864614096E-01 -0.55469749364E-01 -0.86796827429E-01  0.13361866207E+00  0.19411858197E-01 0.  0.
         14    1    1    2    0    0 -0.18734875534E-01 -0.14693447152E-03  0.13699647154E-01  0.23209857457E-01  0.00000000000E+00 0. -1.
     999901    1    3    3    0    0 -0.64129738562E-01  0.55616683835E-01  0.73097180275E-01  0.88710148047E+00  0.88000000000E+00 0.  1.
        -11    1    4    4    0    0  0.33400556173E-01 -0.14338584574E-01 -0.40099943921E-01  0.54124474905E-01  0.51100000000E-03 0.  1.
         11    1    4    4    0    0  0.49464057923E-01 -0.41131164790E-01 -0.46696883508E-01  0.79494187168E-01  0.51100000000E-03 0. -1.
</event>
<event>
 8    1  0.1093753E+005  0.1043930E+01  0.7957747E-01            NaN
         13   -1    0    0    0    0  0.00000000000E+00  0.00000000000E+00  0.74505805969E-08  0.10566000000E+00  0.10566000000E+00 0.  1.
     999900   -1    0    0    0    0 -0.00000000000E+00 -0.00000000000E+00 -0.74505805969E-08  0.93827000000E+00  0.93827000000E+00 0. -1.
     999902    2    1    2    0    0  0.16609909982E-01 -0.97254231820E-02 -0.11892131174E-01  0.10213048868E+01  0.10210542473E+01 0.  0.
     999903    2    3    3    0    0  0.86353491262E-01  0.10766393906E-01 -0.99730022013E-01  0.13394950317E+00  0.20580364882E-01 0.  0.
         14    1    1    2    0    0 -0.16609909982E-01  0.97254231820E-02  0.11892131174E-01  0.22625113249E-01  0.00000000000E+00 0.  1.
     999901    1    3    3    0    0 -0.69743581280E-01 -0.20491817088E-01  0.87837890839E-01  0.88735538358E+00  0.88000000000E+00 0.  1.
        -11    1    4    4    0    0  0.11770011757E-01  0.22613215794E-02 -0.26451516819E-01  0.29044631433E-01  0.51100000000E-03 0. -1.
         11    1    4    4    0    0  0.74583479505E-01  0.85050723263E-02 -0.73278505194E-01  0.10490487174E+00  0.51100000000E-03 0.  1.
</event>
<event>
 8    1  0.1093753E+005  0.1043930E+01  0.7957747E-01            NaN
         13   -1    0    0    0    0  0.00000000000E+00  0.00000000000E+00  0.74505805969E-08  0.10566000000E+00  0.10566000000E+00 0.  1.
     999900   -1    0    0    0    0 -0.00000000000E+00 -0.00000000000E+00 -0.74505805969E-08  0.93827000000E+00  0.93827000000E+00 0. -1.
     999902    2    1    2    0    0  0.13301036293E-03  0.12905498394E-01  0.22862963955E-01  0.10176757679E+01  0.10173370552E+01 0.  0.
     999903    2    3    3    0    0  0.11637905309E+00 -0.41902614954E-01  0.28028715227E-01  0.12832558003E+00  0.19543092758E-01 0.  0.
         14    1    1    2    0    0 -0.13301036293E-03 -0.12905498394E-01 -0.22862963955E-01  0.26254232066E-01  0.00000000000E+00 0. -1.
     999901    1    3    3    0    0 -0.11624604273E+00  0.54808113348E-01 -0.51657512722E-02  0.88935018790E+00  0.88000000000E+00 0.  1.
        -11    1    4    4    0    0  0.76661501425E-01 -0.33323328494E-01  0.11189500807E-01  0.84337987123E-01  0.51100000000E-03 0. -1.
         11    1    4    4    0    0  0.39717551666E-01 -0.85792864600E-02  0.16839214420E-01  0.43987592907E-01  0.51100000000E-03 0.  1.
</event>
<event>
 8    1  0.1093753E+005  0.1043930E+01  0.7957747E-01            NaN
         13   -1    0    0    0    0  0.00000000000E+00  0.00000000000E+00  0.74505805969E-08  0.10566000000E+00  0.10566000000E+00 0. -1.
     999900   -1    0    0    0    0 -0.00000000000E+00 -0.00000000000E+00 -0.74505805969E-08  0.93827000000E+00  0.93827000000E+00 0. -1.
     999902    2    1    2    0    0  0.13398477922E-01  0.74890935724E-02  0.17170131690E-01  0.10208991695E+01  0.10206393560E+01 0.  0.
     999903    2    3    3    0    0  0.27771188039E-01  0.11240481229E+00  0.62823984270E-01  0.13337556015E+00  0.20883159078E-01 0.  0.
         14    1    1    2    0    0 -0.13398477922E-01 -0.74890935724E-02 -0.17170131690E-01  0.23030830541E-01  0.00000000000E+00 0.  1.
     999901    1    3    3    0    0 -0.14372710117E-01 -0.10491571872E+00 -0.45653852580E-01  0.88752360931E+00  0.88000000000E+00 0. -1.
        -11    1    4    4    0    0  0.19888870350E-01  0.10386051867E+00  0.53782854239E-01  0.11863992175E+00  0.51100000000E-03 0.  1.
         11    1    4    4    0    0  0.78823176890E-02  0.85442936247E-02  0.90411300312E-02  0.14735638396E-01  0.51100000000E-03 0. -1.
</event>
<event>
 8    1  0.1093753E+005  0.1043930E+01  0.7957747E-01            NaN
         13   -1    0    0    0    0  0.00000000000E+00  0.00000000000E+00  0.74505805969E-08  0.10566000000E+00  0.10566000000E+00 0.  1.
     999900   -1    0    0    0    0 -0.00000000000E+00 -0.00000000000E+00 -0.74505805969E-08  0.93827000000E+00  0.93827000000E+00 0.  1.
     999902    2    1    2    0    0  0.79595206902E-02  0.20263128986E-01 -0.93882653679E-02  0.10202216071E+01  0.10199460965E+01 0.  0.
     999903    2    3    3    0    0 -0.22028370177E-01 -0.10674057741E-01 -0.12742000331E+00  0.13129648414E+00  0.20092906758E-01 0.  0.
         14    1    1    2    0    0 -0.79595206902E-02 -0.20263128986E-01  0.93882653679E-02  0.23708392871E-01  0.00000000000E+00 0.  1.
     999901    1    3    3    0    0  0.29987890867E-01  0.30937186727E-01  0.11803173794E+00  0.88892512299E+00  0.88000000000E+00 0. -1.
        -11    1    4    4    0    0  0.31160216847E-02 -0.42570191109E-02 -0.30710726828E-01  0.31164750378E-01  0.51100000000E-03 0.  1.
         11    1    4    4    0    0 -0.25144391862E-01 -0.64170386299E-02 -0.96709276484E-01  0.10013173376E+00  0.51100000000E-03 0. -1.
</event>
<event>
 8    1  0.1093753E+005  0.1043930E+01  0.7957747E-01            NaN
         13   -1    0    0    0    0  0.00000000000E+00  0.00000000000E+00  0.74505805969E-08  0.10566000000E+00  0.10566000000E+00 0.  1.
     999900   -1    0    0    0    0 -0.00000000000E+00 -0.00000000000E+00 -0.74505805969E-08  0.93827000000E+00  0.93827000000E+00 0.  1.
     999902    2    1    2    0    0  0.59469343791E-02 -0.28604549183E-02 -0.21022212209E-01  0.10218963522E+01  0.10216587850E+01 0.  0.
     999903    2    3    3    0    0 -0.38506359430E-01  0.11166872916E+00 -0.56814984610E-01  0.13264152260E+00  0.20326983376E-01 0.  0.
         14    1    1    2    0    0 -0.59469343791E-02  0.28604549183E-02  0.21022212209E-01  0.22033647837E-01  0.00000000000E+00 0.  1.
     999901    1    3    3    0    0  0.44453293810E-01 -0.11452918408E+00  0.35792772401E-01  0.88925482956E+00  0.88000000000E+00 0. -1.
        -11    1    4    4    0    0 -0.94377395324E-02  0.28529854613E-01 -0.50376627492E-02  0.30473967557E-01  0.51100000000E-03 0. -1.
         11    1    4    4    0    0 -0.29068619898E-01  0.83138874550E-01 -0.51777321861E-01  0.10216755505E+00  0.51100000000E-03 0.  1.
</event>
<event>
 8    1  0.1093753E+005  0.1043930E+01  0.7957747E-01            NaN
         13   -1    0    0    0    0  0.00000000000E+00  0.00000000000E+00  0.74505805969E-08  0.10566000000E+00  0.10566000000E+00 0.  1.
     999900   -1    0    0    0    0 -0.00000000000E+00 -0.00000000000E+00 -0.74505805969E-08  0.93827000000E+00  0.93827000000E+00 0. -1.
     999902    2    1    2    0    0 -0.20146671988E-01 -0.12936513757E-01  0.34107959823E-02  0.10197458045E+01  0.10194589892E+01 0.  0.
     999903    2    3    3    0    0  0.46827808776E-01 -0.13726015272E-01  0.11870873483E+00  0.12970096349E+00  0.18690346063E-01 0.  0.
         14    1    1    2    0    0  0.20146671988E-01  0.12936513757E-01 -0.34107959823E-02  0.24184195451E-01  0.00000000000E+00 0. -1.
     999901    1    3    3    0    0 -0.66974480764E-01  0.78950151549E-03 -0.11529793885E+00  0.89004484106E+00  0.88000000000E+00 0. -1.
        -11    1    4    4    0    0  0.44057402410E-01 -0.77936636959E-02  0.93559774727E-01  0.10370867114E+00  0.51100000000E-03 0.  1.
         11    1    4    4    0    0  0.27704063658E-02 -0.59323515762E-02  0.25148960104E-01  0.25992292357E-01  0.51100000000E-03 0. -1.
</event>
<event>
 8    1  0.1093753E+005  0.1043930E+01  0.7957747E-01            NaN
         13   -1    0    0    0    0  0.00000000000E+00  0.00000000000E+00  0.74505805969E-08  0.10566000000E+00  0.10566000000E+00 0.  1.
     999900   -1    0    0    0    0 -0.00000000000E+00 -0.00000000000E+00 -0.74505805969E-08  0.93827000000E+00  0.93827000000E+00 0. -1.
     999902    2    1    2    0    0 -0.12506115939E-01 -0.11456393653E-02 -0.21752279333E-01  0.10188127334E+01  0.10185030725E+01 0.  0.
     999903    2    3    3    0    0 -0.74579137008E-01 -0.92461906363E-01  0.46299614124E-01  0.12930568971E+00  0.21565141280E-01 0.  0.
         14    1    1    2    0    0  0.12506115939E-01  0.11456393653E-02  0.21752279333E-01  0.25117266604E-01  0.00000000000E+00 0.  1.
     999901    1    3    3    0    0  0.62073021069E-01  0.91316266998E-01 -0.68051893457E-01  0.88950704369E+00  0.88000000000E+00 0. -1.
        -11    1    4    4    0    0 -0.41768670737E-01 -0.67338450783E-01  0.33592295360E-01  0.86068532214E-01  0.51100000000E-03 0.  1.
         11    1    4    4    0    0 -0.32810466271E-01 -0.25123455581E-01  0.12707318763E-01  0.43237157497E-01  0.51100000000E-03 0. -1.
</event>
<event>
 8    1  0.1093753E+005  0.1043930E+01  0.7957747E-01            NaN
         13   -1    0    0    0    0  0.00000000000E+00  0.00000000000E+00  0.74505805969E-08  0.10566000000E+00  0.10566000000E+00 0. -1.
     999900   -1    0    0    0    0 -0.00000000000E+00 -0.00000000000E+00 -0.74505805969E-08  0.93827000000E+00  0.93827000000E+00 0. -1.
     999902    2    1    2    0    0  0.18152924515E-01 -0.13175876951E-01 -0.65066137718E-02  0.10205747345E+01  0.10203074636E+01 0.  0.
     999903    2    3    3    0    0  0.10470282715E+00  0.22396245779E-01 -0.76431283829E-01  0.13285534135E+00  0.18561431540E-01 0.  0.
         14    1    1    2    0    0 -0.18152924515E-01  0.13175876951E-01  0.65066137718E-02  0.23355265459E-01  0.00000000000E+00 0.  1.
     999901    1    3    3    0    0 -0.86549902631E-01 -0.35572122729E-01  0.69924670057E-01  0.88771939319E+00  0.88000000000E+00 0.  1.
        -11    1    4    4    0    0  0.17807869143E-01  0.77031876035E-02 -0.21698308970E-01  0.29112489344E-01  0.51100000000E-03 0.  1.
         11    1    4    4    0    0  0.86894958003E-01  0.14693058175E-01 -0.54732974859E-01  0.10374285201E+00  0.51100000000E-03 0. -1.
</event>
<event>
 7    1  0.1093753E+005  0.1043930E+01  0.7957747E-01            NaN
         13   -1    0    0    0    0  0.00000000000E+00  0.00000000000E+00  0.74505805969E-08  0.10566000000E+00  0.10566000000E+00 0.  1.
     999900   -1    0    0    0    0 -0.00000000000E+00 -0.00000000000E+00 -0.74505805969E-08  0.93827000000E+00  0.93827000000E+00 0.  1.
     999902    2    1    2    0    0 -0.66537070037E-02  0.15926641753E-01  0.15367068096E-01  0.10208199045E+01  0.10205582790E+01 0.  0.
         14    1    1    2    0    0  0.66537070037E-02 -0.15926641753E-01 -0.15367068096E-01  0.23110095549E-01  0.00000000000E+00 0. -1.
     999901    1    3    3    0    0  0.82930289592E-01  0.10123397904E+00  0.28992040830E-01  0.89014958848E+00  0.88000000000E+00 0. -1.
        -11    1    3    3    0    0 -0.37851890146E-01 -0.26479027402E-01  0.12894527119E-01  0.47962844269E-01  0.51100000000E-03 0.  1.
         11    1    3    3    0    0 -0.51732106451E-01 -0.58828309883E-01 -0.26519499853E-01  0.82707471700E-01  0.51100000000E-03 0. -1.
</event>
<event>
 8    1  0.1093753E+005  0.1043930E+01  0.7957747E-01            NaN
         13   -1    0    0    0    0  0.00000000000E+00  0.00000000000E+00  0.74505805969E-08  0.10566000000E+00  0.10566000000E+00 0. -1.
     999900   -1    0    0    0    0 -0.00000000000E+00 -0.00000000000E+00 -0.74505805969E-08  0.93827000000E+00  0.93827000000E+00 0. -1.
     999902    2    1    2    0    0  0.17392934383E-01 -0.88507638328E-02  0.12855972522E-01  0.10205606565E+01  0.10202930595E+01 0.  0.
     999903    2    3    3    0    0 -0.11824680805E+00 -0.48205313952E-01  0.67310707683E-02  0.12927819017E+00  0.19012712357E-01 0.  0.
         14    1    1    2    0    0 -0.17392934383E-01  0.88507638328E-02 -0.12855972522E-01  0.23369343516E-01  0.00000000000E+00 0.  1.
     999901    1    3    3    0    0  0.13563974244E+00  0.39354550119E-01  0.61249017539E-02  0.89128246632E+00  0.88000000000E+00 0.  1.
        -11    1    4    4    0    0 -0.45011950106E-01 -0.28305997135E-01  0.42765386642E-02  0.53346555935E-01  0.51100000000E-03 0. -1.
         11    1    4    4    0    0 -0.73234857947E-01 -0.19899316817E-01  0.24545321042E-02  0.75931634232E-01  0.51100000000E-03 0.  1.
</event>
<event>
 8    1  0.1093753E+005  0.1043930E+01  0.7957747E-01            NaN
         13   -1    0    0    0    0  0.00000000000E+00  0.00000000000E+00  0.74505805969E-08  0.10566000000E+00  0.10566000000E+00 0. -1.
     999900   -1    0    0    0    0 -0.00000000000E+00 -0.00000000000E+00 -0.74505805969E-08  0.93827000000E+00  0.93827000000E+00 0.  1.
     999902    2    1    2    0    0  0.34123927818E-02 -0.19562912358E-01 -0.15785040437E-01  0.10185623145E+01  0.10182463696E+01 0.  0.
     999903    2    3    3    0    0 -0.54745047482E-01 -0.65526921323E-02  0.11283269047E+00  0.12721834367E+00  0.20330591003E-01 0.  0.
         14    1    1    2    0    0 -0.34123927818E-02  0.19562912358E-01  0.15785040437E-01  0.25367685468E-01  0.00000000000E+00 0. -1.
     999901    1    3    3    0    0  0.58157440264E-01 -0.13010220225E-01 -0.12861773090E+00  0.89134397086E+00  0.88000000000E+00 0. -1.
        -11    1    4    4    0    0 -0.24681046521E-01  0.67277227032E-02  0.55908410017E-01  0.61485183107E-01  0.51100000000E-03 0. -1.
         11    1    4    4    0    0 -0.30064000961E-01 -0.13280414835E-01  0.56924280449E-01  0.65733160563E-01  0.51100000000E-03 0.  1.
</event>
<event>
 8    1  0.1093753E+005  0.1043930E+01  0.7957747E-01            NaN
         13   -1    0    0    0    0  0.00000000000E+00  0.00000000000E+00  0.74505805969E-08  0.10566000000E+00  0.10566000000E+00 0.  1.
     999900   -1    0    0    0    0 -0.00000000000E+00 -0.00000000000E+00 -0.74505805969E-08  0.93827000000E+00  0.93827000000E+00 0.  1.
     999902    2    1    2    0    0 -0.19548729148E-01  0.23866445172E-02  0.12926594022E-01  0.10203727142E+01  0.10201007451E+01 0.  0.
     999903    2    3    3    0    0 -0.54272744298E-01  0.11302678236E+00 -0.34298439084E-01  0.13150984448E+00  0.19946728239E-01 0.  0.
         14    1    1    2    0    0  0.19548729148E-01 -0.23866445172E-02 -0.12926594022E-01  0.23557285845E-01  0.00000000000E+00 0. -1.
     999901    1    3    3    0    0  0.34724015150E-01 -0.11064013785E+00  0.47225033106E-01  0.88886286967E+00  0.88000000000E+00 0.  1.
        -11    1    4    4    0    0 -0.85959279867E-03  0.17363060731E-01 -0.48048802139E-02  0.18043358130E-01  0.51100000000E-03 0. -1.
         11    1    4    4    0    0 -0.53413151500E-01  0.95663721631E-01 -0.29493558871E-01  0.11346648635E+00  0.51100000000E-03 0.  1.
</event>
<event>
 8    1  0.1093753E+005  0.1043930E+01  0.7957747E-01            NaN
         13   -1    0    0    0    0  0.00000000000E+00  0.00000000000E+00  0.74505805969E-08  0.10566000000E+00  0.10566000000E+00 0.  1.
     999900   -1    0    0    0    0 -0.00000000000E+00 -0.00000000000E+00 -0.74505805969E-08  0.93827000000E+00  0.93827000000E+00 0. -1.
     999902    2    1    2    0    0 -0.15482220832E-01 -0.38270815394E-02 -0.17177449826E-01  0.10204904928E+01  0.10202212679E+01 0.  0.
     999903    2    3    3    0    0 -0.10418990646E+00 -0.45283956814E-01  0.63821801288E-01  0.13136249039E+00  0.16634548623E-01 0.  0.
         14    1    1    2    0    0  0.15482220832E-01  0.38270815394E-02  0.17177449826E-01  0.23439507195E-01  0.00000000000E+00 0. -1.
     999901    1    3    3    0    0  0.88707685632E-01  0.41456875275E-01 -0.80999251115E-01  0.88912800242E+00  0.88000000000E+00 0. -1.
        -11    1    4    4    0    0 -0.51365263711E-01 -0.28618200710E-01  0.39673734297E-01  0.70934181056E-01  0.51100000000E-03 0. -1.
         11    1    4    4    0    0 -0.52824642753E-01 -0.16665756104E-01  0.24148066991E-01  0.60428309334E-01  0.51100000000E-03 0.  1.
</event>
<event>
 8    1  0.1093753E+005  0.1043930E+01  0.7957747E-01            NaN
         13   -1    0    0    0    0  0.00000000000E+00  0.00000000000E+00  0.74505805969E-08  0.10566000000E+00  0.10566000000E+00 0.  1.
     999900   -1    0    0    0    0 -0.00000000000E+00 -0.00000000000E+00 -0.74505805969E-08  0.93827000000E+00  0.93827000000E+00 0. -1.
     999902    2    1    2    0    0  0.12291597372E-01 -0.10056805226E-02  0.20502707653E-01  0.10200039518E+01  0.10197232987E+01 0.  0.
     999903    2    3    3    0    0  0.79509489239E-01 -0.97131815852E-01 -0.30464154265E-01  0.13075927241E+00  0.20336521268E-01 0.  0.
         14    1    1    2    0    0 -0.12291597372E-01  0.10056805226E-02 -0.20502707653E-01  0.23926048157E-01  0.00000000000E+00 0. -1.
     999901    1    3    3    0    0 -0.67217891867E-01  0.96126135330E-01  0.50966861919E-01  0.88924467943E+00  0.88000000000E+00 0.  1.
        -11    1    4    4    0    0  0.20548902180E-01 -0.34926434996E-01 -0.25001763824E-02  0.40603266437E-01  0.51100000000E-03 0.  1.
         11    1    4    4    0    0  0.58960587059E-01 -0.62205380856E-01 -0.27963977883E-01  0.90156005977E-01  0.51100000000E-03 0. -1.
</event>
<event>
 8    1  0.1093753E+005  0.1043930E+01  0.7957747E-01            NaN
         13   -1    0    0    0    0  0.00000000000E+00  0.00000000000E+00  0.74505805969E-08  0.10566000000E+00  0.10566000000E+00 0.  1.
     999900   -1    0    0    0    0 -0.00000000000E+00 -0.00000000000E+00 -0.74505805969E-08  0.93827000000E+00  0.93827000000E+00 0. -1.
     999902    2    1    2    0    0 -0.17324025830E-01 -0.78460669966E-02  0.19695231723E-01  0.10165514538E+01  0.10161826969E+01 0.  0.
     999903    2    3    3    0    0 -0.11849892319E-01  0.12508149691E+00  0.19650961996E-03  0.12633805045E+00  0.13246265800E-01 0.  0.
         14    1    1    2    0    0  0.17324025830E-01  0.78460669966E-02 -0.19695231723E-01  0.27378546179E-01  0.00000000000E+00 0. -1.
     999901    1    3    3    0    0 -0.54741335108E-02 -0.13292756391E+00  0.19498722103E-01  0.89021340337E+00  0.88000000000E+00 0. -1.
        -11    1    4    4    0    0 -0.11061300805E-01  0.53236109147E-01 -0.25354758063E-02  0.54434597924E-01  0.51100000000E-03 0. -1.
         11    1    4    4    0    0 -0.78859151392E-03  0.71845387762E-01  0.27319854263E-02  0.71903452523E-01  0.51100000000E-03 0.  1.
</event>
<event>
 8    1  0.1093753E+005  0.1043930E+01  0.7957747E-01            NaN
         13   -1    0    0    0    0  0.00000000000E+00  0.00000000000E+00  0.74505805969E-08  0.10566000000E+00  0.10566000000E+00 0. -1.
     999900   -1    0    0    0    0 -0.00000000000E+00 -0.00000000000E+00 -0.74505805969E-08  0.93827000000E+00  0.93827000000E+00 0. -1.
     999902    2    1    2    0    0  0.71206970263E-02 -0.22341453180E-01  0.32203868652E-02  0.10202611228E+01  0.10199865406E+01 0.  0.
     999903    2    3    3    0    0 -0.52744852796E-01 -0.34310407004E-01 -0.11249473247E+00  0.13058863882E+00  0.20954813991E-01 0.  0.
         14    1    1    2    0    0 -0.71206970263E-02  0.22341453180E-01 -0.32203868652E-02  0.23668877200E-01  0.00000000000E+00 0. -1.
     999901    1    3    3    0    0  0.59865549822E-01  0.11968953824E-01  0.11571511934E+00  0.88967248398E+00  0.88000000000E+00 0.  1.
        -11    1    4    4    0    0 -0.52441846854E-01 -0.32316452626E-01 -0.96679905044E-01  0.11463753998E+00  0.51100000000E-03 0. -1.
         11    1    4    4    0    0 -0.30300594122E-03 -0.19939543781E-02 -0.15814827428E-01  0.15951098841E-01  0.51100000000E-03 0.  1.
</event>
<event>
 8    1  0.1093753E+005  0.1043930E+01  0.7957747E-01            NaN
         13   -1    0    0    0    0  0.00000000000E+00  0.00000000000E+00  0.74505805969E-08  0.10566000000E+00  0.10566000000E+00 0. -1.
     999900   -1    0    0    0    0 -0.00000000000E+00 -0.00000000000E+00 -0.74505805969E-08  0.93827000000E+00  0.93827000000E+00 0. -1.
     999902    2    1    2    0    0 -0.53469833477E-02  0.41740514052E-02  0.84809829438E-02  0.10330699812E+01  0.10330128974E+01 0.  0.
     999903    2    3    3    0    0  0.30009195487E-01 -0.90294854097E-01 -0.10148550510E+00  0.14050790384E+00  0.19734508043E-01 0.  0.
         14    1    1    2    0    0  0.53469833477E-02 -0.41740514052E-02 -0.84809829438E-02  0.10860018773E-01  0.00000000000E+00 0.  1.
     999901    1    3    3    0    0 -0.35356178834E-01  0.94468905502E-01  0.10996648804E+00  0.89256207738E+00  0.88000000000E+00 0.  1.
        -11    1    4    4    0    0  0.10625976475E-01 -0.35555908866E-01 -0.53838285618E-01  0.65390795611E-01  0.51100000000E-03 0. -1.
         11    1    4    4    0    0  0.19383219011E-01 -0.54738945231E-01 -0.47647219481E-01  0.75117108234E-01  0.51100000000E-03 0.  1.
</event>
<event>
 8    1  0.1093753E+005  0.1043930E+01  0.7957747E-01            NaN
         13   -1    0    0    0    0  0.00000000000E+00  0.00000000000E+00  0.74505805969E-08  0.10566000000E+00  0.10566000000E+00 0. -1.
     999900   -1    0    0    0    0 -0.00000000000E+00 -0.00000000000E+00 -0.74505805969E-08  0.93827000000E+00  0.93827000000E+00 0.  1.
     999902    2    1    2    0    0  0.71996223219E-02  0.72092212363E-03  0.22221981728E-01  0.10205597034E+01  0.10202920844E+01 0.  0.
     999903    2    3    3    0    0  0.31408928290E-01  0.56985222974E-01  0.11491923081E+00  0.13357349043E+00  0.20040242546E-01 0.  0.
         14    1    1    2    0    0 -0.71996223219E-02 -0.72092212363E-03 -0.22221981728E-01  0.23370296580E-01  0.00000000000E+00 0.  1.
     999901    1    3    3    0    0 -0.24209305968E-01 -0.56264300850E-01 -0.92697249086E-01  0.88698621299E+00  0.88000000000E+00 0.  1.
        -11    1    4    4    0    0  0.13884409542E-01  0.32742117254E-01  0.43835804145E-01  0.56450526274E-01  0.51100000000E-03 0.  1.
         11    1    4    4    0    0  0.17524518748E-01  0.24243105720E-01  0.71083426669E-01  0.77122964157E-01  0.51100000000E-03 0. -1.
</event>
<event>
 8    1  0.1093753E+005  0.1043930E+01  0.7957747E-01            NaN
         13   -1    0    0    0    0  0.00000000000E+00  0.00000000000E+00  0.74505805969E-08  0.10566000000E+00  0.10566000000E+00 0. -1.
     999900   -1    0    0    0    0 -0.00000000000E+00 -0.00000000000E+00 -0.74505805969E-08  0.93827000000E+00  0.93827000000E+00 0.  1.
     999902    2    1    2    0    0 -0.16433841397E-02 -0.38872467934E-02 -0.17911775873E-01  0.10255277416E+01  0.10253626216E+01 0.  0.
     999903    2    3    3    0    0 -0.86132838940E-03  0.95084627824E-01  0.91222236936E-01  0.13327986331E+00  0.20004927313E-01 0.  0.
         14    1    1    2    0    0  0.16433841397E-02  0.38872467934E-02  0.17911775873E-01  0.18402258394E-01  0.00000000000E+00 0. -1.
     999901    1    3    3    0    0 -0.78205575030E-03 -0.98971874617E-01 -0.10913401281E+00  0.89224787830E+00  0.88000000000E+00 0. -1.
        -11    1    4    4    0    0  0.80769841834E-02  0.32274747453E-01  0.25416395376E-01  0.41870649285E-01  0.51100000000E-03 0.  1.
         11    1    4    4    0    0 -0.89383125728E-02  0.62809880370E-01  0.65805841560E-01  0.91409214022E-01  0.51100000000E-03 0. -1.
</event>
<event>
 8    1  0.1093753E+005  0.1043930E+01  0.7957747E-01            NaN
         13   -1    0    0    0    0  0.00000000000E+00  0.00000000000E+00  0.74505805969E-08  0.10566000000E+00  0.10566000000E+00 0. -1.
     999900   -1    0    0    0    0 -0.00000000000E+00 -0.00000000000E+00 -0.74505805969E-08  0.93827000000E+00  0.93827000000E+00 0.  1.
     999902    2    1    2    0    0  0.26182257649E-01  0.13480574522E-01  0.12305948376E-01  0.10120133449E+01  0.10115099295E+01 0.  0.
     999903    2    3    3    0    0 -0.51791563609E-01 -0.10268421735E+00  0.30997863222E-01  0.12076502749E+00  0.19922594870E-01 0.  0.
         14    1    1    2    0    0 -0.26182257649E-01 -0.13480574522E-01 -0.12305948376E-01  0.31916655064E-01  0.00000000000E+00 0. -1.
     999901    1    3    3    0    0  0.77973821258E-01  0.11616479187E+00 -0.18691914846E-01  0.89124831745E+00  0.88000000000E+00 0.  1.
        -11    1    4    4    0    0 -0.23824290239E-01 -0.42980987367E-01  0.23292183614E-01  0.54385191174E-01  0.51100000000E-03 0. -1.
         11    1    4    4    0    0 -0.27967273370E-01 -0.59703229982E-01  0.77056796074E-02  0.66379836315E-01  0.51100000000E-03 0.  1.
</event>
<event>
 8    1  0.1093753E+005  0.1043930E+01  0.7957747E-01            NaN
         13   -1    0    0    0    0  0.00000000000E+00  0.00000000000E+00  0.74505805969E-08  0.10566000000E+00  0.10566000000E+00 0. -1.
     999900   -1    0    0    0    0 -0.00000000000E+00 -0.00000000000E+00 -0.74505805969E-08  0.93827000000E+00  0.93827000000E+00 0.  1.
     999902    2    1    2    0    0 -0.82937702437E-02 -0.12716627615E-01  0.17200184997E-01  0.10209877768E+01  0.10207299813E+01 0.  0.
     999903    2    3    3    0    0  0.99302789133E-01  0.79408488096E-01  0.11111779830E-01  0.12963985076E+00  0.22721517154E-01 0.  0.
         14    1    1    2    0    0  0.82937702437E-02  0.12716627615E-01 -0.17200184997E-01  0.22942223229E-01  0.00000000000E+00 0.  1.
     999901    1    3    3    0    0 -0.10759655938E+00 -0.92125115711E-01  0.60884051663E-02  0.89134792602E+00  0.88000000000E+00 0. -1.
        -11    1    4    4    0    0  0.99569372963E-02  0.91648261302E-02  0.84357588054E-02  0.15954867155E-01  0.51100000000E-03 0. -1.
         11    1    4    4    0    0  0.89345851836E-01  0.70243661966E-01  0.26760210249E-02  0.11368498360E+00  0.51100000000E-03 0.  1.
</event>
<event>
 8    1  0.1093753E+005  0.1043930E+01  0.7957747E-01            NaN
         13   -1    0    0    0    0  0.00000000000E+00  0.00000000000E+00  0.74505805969E-08  0.10566000000E+00  0.10566000000E+00 0. -1.
     999900   -1    0    0    0    0 -0.00000000000E+00 -0.00000000000E+00 -0.74505805969E-08  0.93827000000E+00  0.93827000000E+00 0. -1.
     999902    2    1    2    0    0 -0.89002946734E-02  0.19627081502E-01 -0.10305074838E-01  0.10200420922E+01  0.10197623437E+01 0.  0.
     999903    2    3    3    0    0  0.53545387730E-01  0.90599170171E-01  0.75210033587E-01  0.13085744632E+00  0.19794037573E-01 0.  0.
         14    1    1    2    0    0  0.89002946734E-02 -0.19627081502E-01  0.10305074838E-01  0.23887907840E-01  0.00000000000E+00 0.  1.
     999901    1    3    3    0    0 -0.62445682404E-01 -0.70972088668E-01 -0.85515108425E-01  0.88918464584E+00  0.88000000000E+00 0. -1.
        -11    1    4    4    0    0  0.50546172300E-01  0.84953184664E-01  0.75574402478E-01  0.12443355878E+00  0.51100000000E-03 0. -1.
         11    1    4    4    0    0  0.29992154300E-02  0.56459855072E-02 -0.36436889095E-03  0.64238875482E-02  0.51100000000E-03 0.  1.
</event>
<event>
 8    1  0.1093753E+005  0.1043930E+01  0.7957747E-01            NaN
         13   -1    0    0    0    0  0.00000000000E+00  0.00000000000E+00  0.74505805969E-08  0.10566000000E+00  0.10566000000E+00 0. -1.
     999900   -1    0    0    0    0 -0.00000000000E+00 -0.00000000000E+00 -0.74505805969E-08  0.93827000000E+00  0.93827000000E+00 0. -1.
     999902    2    1    2    0    0 -0.12511193450E-01 -0.19632769231E-01  0.47692103125E-03  0.10206447462E+01  0.10203790938E+01 0.  0.
     999903    2    3    3    0    0  0.17999220245E-01 -0.28448745326E-01  0.12530582556E+00  0.13126807565E+00  0.19911170871E-01 0.  0.
         14    1    1    2    0    0  0.12511193450E-01  0.19632769231E-01 -0.47692103125E-03  0.23285253765E-01  0.00000000000E+00 0.  1.
     999901    1    3    3    0    0 -0.30510413695E-01  0.88159760951E-02 -0.12482890453E+00  0.88937667059E+00  0.88000000000E+00 0. -1.
        -11    1    4    4    0    0  0.15375660785E-01 -0.23289566670E-01  0.65747007976E-01  0.71426500958E-01  0.51100000000E-03 0. -1.
         11    1    4    4    0    0  0.26235594605E-02 -0.51591786563E-02  0.59558817582E-01  0.59841574691E-01  0.51100000000E-03 0.  1.
</event>
<event>
 8    1  0.1093753E+005  0.1043930E+01  0.7957747E-01            NaN
         13   -1    0    0    0    0  0.00000000000E+00  0.00000000000E+00  0.74505805969E-08  0.10566000000E+00  0.10566000000E+00 0. -1.
     999900   -1    0    0    0    0 -0.00000000000E+00 -0.00000000000E+00 -0.74505805969E-08  0.93827000000E+00  0.93827000000E+00 0. -1.
     999902    2    1    2    0    0  0.38015624939E-02  0.12644301905E-01 -0.19260198859E-01  0.10205786508E+01  0.10203114706E+01 0.  0.
     999903    2    3    3    0    0  0.12565346552E+00 -0.27522110318E-01 -0.15446662400E-01  0.13126668644E+00  0.21120692120E-01 0.  0.
         14    1    1    2    0    0 -0.38015624939E-02 -0.12644301905E-01  0.19260198859E-01  0.23351349171E-01  0.00000000000E+00 0. -1.
     999901    1    3    3    0    0 -0.12185190303E+00  0.40166412223E-01 -0.38135364589E-02  0.88931196439E+00  0.88000000000E+00 0.  1.
        -11    1    4    4    0    0  0.93573876823E-01 -0.24098222616E-01 -0.20013514061E-01  0.98679261362E-01  0.51100000000E-03 0. -1.
         11    1    4    4    0    0  0.32079588700E-01 -0.34238877021E-02  0.45668516617E-02  0.32587425079E-01  0.51100000000E-03 0.  1.
</event>
<event>
 8    1  0.1093753E+005  0.1043930E+01  0.7957747E-01            NaN
         13   -1    0    0    0    0  0.00000000000E+00  0.00000000000E+00  0.74505805969E-08  0.10566000000E+00  0.10566000000E+00 0. -1.
     999900   -1    0    0    0    0 -0.00000000000E+00 -0.00000000000E+00 -0.74505805969E-08  0.93827000000E+00  0.93827000000E+00 0. -1.
     999902    2    1    2    0    0  0.17914401230E-01 -0.13081257459E-01 -0.84232948222E-02  0.10202024429E+01  0.10199264815E+01 0.  0.
     999903    2    3    3    0    0 -0.78820724713E-01  0.69725260935E-02 -0.10101164724E+00  0.12984720944E+00  0.19890252788E-01 0.  0.
         14    1    1    2    0    0 -0.17914401230E-01  0.13081257459E-01  0.84232948222E-02  0.23727557055E-01  0.00000000000E+00 0. -1.
     999901    1    3    3    0    0  0.96735125943E-01 -0.20053783552E-01  0.92588352422E-01  0.89035523351E+00  0.88000000000E+00 0.  1.
        -11    1    4    4    0    0 -0.43103145699E-01  0.60129048501E-02 -0.39847449389E-01  0.59009461425E-01  0.51100000000E-03 0. -1.
         11    1    4    4    0    0 -0.35717579014E-01  0.95962124338E-03 -0.61164197855E-01  0.70837748015E-01  0.51100000000E-03 0.  1.
</event>
<event>
 8    1  0.1093753E+005  0.1043930E+01  0.7957747E-01            NaN
         13   -1    0    0    0    0  0.00000000000E+00  0.00000000000E+00  0.74505805969E-08  0.10566000000E+00  0.10566000000E+00 0.  1.
     999900   -1    0    0    0    0 -0.00000000000E+00 -0.00000000000E+00 -0.74505805969E-08  0.93827000000E+00  0.93827000000E+00 0. -1.
     999902    2    1    2    0    0  0.31654807631E-02  0.24571396566E-01  0.37091361984E-02  0.10188794214E+01  0.10185714230E+01 0.  0.
     999903    2    3    3    0    0  0.74697892047E-01  0.10666715646E+00 -0.12366091678E-01  0.13202260509E+00  0.17871504904E-01 0.  0.
         14    1    1    2    0    0 -0.31654807631E-02 -0.24571396566E-01 -0.37091361984E-02  0.25050578616E-01  0.00000000000E+00 0.  1.
     999901    1    3    3    0    0 -0.71532411284E-01 -0.82095759896E-01  0.16075227876E-01  0.88685681629E+00  0.88000000000E+00 0.  1.
        -11    1    4    4    0    0  0.37089493351E-01  0.39474392384E-01 -0.92855923325E-02  0.54957633838E-01  0.51100000000E-03 0.  1.
         11    1    4    4    0    0  0.37608398696E-01  0.67192764077E-01 -0.30804993452E-02  0.77064971251E-01  0.51100000000E-03 0. -1.
</event>
<event>
 8    1  0.1093753E+005  0.1043930E+01  0.7957747E-01            NaN
         13   -1    0    0    0    0  0.00000000000E+00  0.00000000000E+00  0.74505805969E-08  0.10566000000E+00  0.10566000000E+00 0. -1.
     999900   -1    0    0    0    0 -0.00000000000E+00 -0.00000000000E+00 -0.74505805969E-08  0.93827000000E+00  0.93827000000E+00 0. -1.
     999902    2    1    2    0    0  0.11116380771E-01 -0.15705017699E-01 -0.13377416176E-01  0.10204954792E+01  0.10202263701E+01 0.  0.
     999903    2    3    3    0    0  0.30611394119E-01 -0.11766767573E+00  0.47660842671E-01  0.13229386456E+00  0.21151153944E-01 0.  0.
         14    1    1    2    0    0 -0.11116380771E-01  0.15705017699E-01  0.13377416176E-01  0.23434520817E-01  0.00000000000E+00 0. -1.
     999901    1    3    3    0    0 -0.19495013348E-01  0.10196265804E+00 -0.61038258846E-01  0.88820161462E+00  0.88000000000E+00 0. -1.
        -11    1    4    4    0    0  0.28124729412E-01 -0.11045798558E+00  0.38382105688E-01  0.12027225009E+00  0.51100000000E-03 0. -1.
         11    1    4    4    0    0  0.24866647071E-02 -0.72096901506E-02  0.92787369829E-02  0.12021614469E-01  0.51100000000E-03 0.  1.
</event>
<event>
 8    1  0.1093753E+005  0.1043930E+01  0.7957747E-01            NaN
         13   -1    0    0    0    0  0.00000000000E+00  0.00000000000E+00  0.74505805969E-08  0.10566000000E+00  0.10566000000E+00 0.  1.
     999900   -1    0    0    0    0 -0.00000000000E+00 -0.00000000000E+00 -0.74505805969E-08  0.93827000000E+00  0.93827000000E+00 0. -1.
     999902    2    1    2    0    0 -0.15952540180E-01 -0.13390816446E-01 -0.10658631170E-01  0.10205333352E+01  0.10202651050E+01 0.  0.
     999903    2    3    3    0    0  0.80560142042E-01  0.37957534232E-01 -0.92603759500E-01  0.12999060466E+00  0.19783582445E-01 0.  0.
         14    1    1    2    0    0  0.15952540180E-01  0.13390816446E-01  0.10658631170E-01  0.23396664756E-01  0.00000000000E+00 0.  1.
     999901    1    3    3    0    0 -0.96512682223E-01 -0.51348350678E-01  0.81945128330E-01  0.89054273059E+00  0.88000000000E+00 0.  1.
        -11    1    4    4    0    0  0.75958281442E-01  0.30335577094E-01 -0.87226091294E-01  0.11957658584E+00  0.51100000000E-03 0. -1.
         11    1    4    4    0    0  0.46018606005E-02  0.76219571380E-02 -0.53776682055E-02  0.10414018817E-01  0.51100000000E-03 0.  1.
</event>
<event>
 8    1  0.1093753E+005  0.1043930E+01  0.7957747E-01            NaN
         13   -1    0    0    0    0  0.00000000000E+00  0.00000000000E+00  0.74505805969E-08  0.10566000000E+00  0.10566000000E+00 0.  1.
     999900   -1    0    0    0    0 -0.00000000000E+00 -0.00000000000E+00 -0.74505805969E-08  0.93827000000E+00  0.93827000000E+00 0.  1.
     999902    2    1    2    0    0  0.12001003570E-01 -0.28199053406E-02 -0.20263579376E-01  0.10202110497E+01  0.10199352908E+01 0.  0.
     999903    2    3    3    0    0  0.12513303942E-01 -0.47630083824E-01  0.11686714474E+00  0.12846386019E+00  0.20489660729E-01 0.  0.
         14    1    1    2    0    0 -0.12001003570E-01  0.28199053406E-02  0.20263579376E-01  0.23718950271E-01  0.00000000000E+00 0.  1.
     999901    1    3    3    0    0 -0.51230037231E-03  0.44810178484E-01 -0.13713072411E+00  0.89174718953E+00  0.88000000000E+00 0.  1.
        -11    1    4    4    0    0  0.10368760842E-02 -0.45642690878E-02  0.34414956384E-01  0.34735543874E-01  0.51100000000E-03 0. -1.
         11    1    4    4    0    0  0.11476427858E-01 -0.43065814736E-01  0.82452188351E-01  0.93728316320E-01  0.51100000000E-03 0.  1.
</event>
<event>
 8    1  0.1093753E+005  0.1043930E+01  0.7957747E-01            NaN
         13   -1    0    0    0    0  0.00000000000E+00  0.00000000000E+00  0.74505805969E-08  0.10566000000E+00  0.10566000000E+00 0. -1.
     999900   -1    0    0    0    0 -0.00000000000E+00 -0.00000000000E+00 -0.74505805969E-08  0.93827000000E+00  0.93827000000E+00 0.  1.
     999902    2    1    2    0    0  0.50220868407E-02  0.23441682169E-01  0.20464848305E-02  0.10198692037E+01  0.10195853425E+01 0.  0.
     999903    2    3    3    0    0  0.98768392548E-01  0.27094411420E-01 -0.79516775533E-01  0.13113174093E+00  0.19578390928E-01 0.  0.
         14    1    1    2    0    0 -0.50220868407E-02 -0.23441682169E-01 -0.20464848305E-02  0.24060796315E-01  0.00000000000E+00 0. -1.
     999901    1    3    3    0    0 -0.93746305707E-01 -0.36527292512E-02  0.81563260363E-01  0.88873746276E+00  0.88000000000E+00 0. -1.
        -11    1    4    4    0    0  0.25378048678E-01  0.12089643726E-02 -0.12000317756E-01  0.28102948187E-01  0.51100000000E-03 0. -1.
         11    1    4    4    0    0  0.73390343869E-01  0.25885447048E-01 -0.67516457777E-01  0.10302879274E+00  0.51100000000E-03 0.  1.
</event>
<event>
 8    1  0.1093753E+005  0.1043930E+01  0.7957747E-01            NaN
         13   -1    0    0    0    0  0.00000000000E+00  0.00000000000E+00  0.74505805969E-08  0.10566000000E+00  0.10566000000E+00 0.  1.
     999900   -1    0    0    0    0 -0.00000000000E+00 -0.00000000000E+00 -0.74505805969E-08  0.93827000000E+00  0.93827000000E+00 0.  1.
     999902    2    1    2    0    0 -0.22926251822E-01 -0.23312290307E-02 -0.42332187057E-02  0.10204999383E+01  0.10202309328E+01 0.  0.
     999903    2    3    3    0    0 -0.77702003715E-01 -0.95270220645E-01 -0.43951390041E-01  0.13302285560E+00  0.25482132993E-01 0.  0.
         14    1    1    2    0    0  0.22926251822E-01  0.23312290307E-02  0.42332187057E-02  0.23430061716E-01  0.00000000000E+00 0.  1.
     999901    1    3    3    0    0  0.54775751893E-01  0.92938991614E-01  0.39718171335E-01  0.88747708269E+00  0.88000000000E+00 0.  1.
        -11    1    4    4    0    0 -0.56607801670E-01 -0.83189042551E-01 -0.30048549728E-01  0.10501445840E+00  0.51100000000E-03 0. -1.
         11    1    4    4    0    0 -0.21094202045E-01 -0.12081178094E-01 -0.13902840313E-01  0.28008397202E-01  0.51100000000E-03 0.  1.
</event>
<event>
 8    1  0.1093753E+005  0.1043930E+01  0.7957747E-01            NaN
         13   -1    0    0    0    0  0.00000000000E+00  0.00000000000E+00  0.74505805969E-08  0.10566000000E+00  0.10566000000E+00 0. -1.
     999900   -1    0    0    0    0 -0.00000000000E+00 -0.00000000000E+00 -0.74505805969E-08  0.93827000000E+00  0.93827000000E+00 0.  1.
     999902    2    1    2    0    0  0.14458896089E-01  0.16512670264E-01  0.77951357005E-02  0.10206385403E+01  0.10203727445E+01 0.  0.
     999903    2    3    3    0    0 -0.30523321144E-01 -0.10010435725E+00  0.73327510602E-01  0.12939366757E+00  0.20328352663E-01 0.  0.
         14    1    1    2    0    0 -0.14458896089E-01 -0.16512670264E-01 -0.77951357005E-02  0.23291459722E-01  0.00000000000E+00 0.  1.
     999901    1    3    3    0    0  0.44982217234E-01  0.11661702751E+00 -0.65532374901E-01  0.89124487271E+00  0.88000000000E+00 0.  1.
        -11    1    4    4    0    0 -0.10486543462E-01 -0.38357659704E-01  0.40059980597E-01  0.56447682133E-01  0.51100000000E-03 0. -1.
         11    1    4    4    0    0 -0.20036777683E-01 -0.61746697544E-01  0.33267530004E-01  0.72945985435E-01  0.51100000000E-03 0.  1.
</event>
<event>
 8    1  0.1093753E+005  0.1043930E+01  0.7957747E-01            NaN
         13   -1    0    0    0    0  0.00000000000E+00  0.00000000000E+00  0.74505805969E-08  0.10566000000E+00  0.10566000000E+00 0. -1.
     999900   -1    0    0    0    0 -0.00000000000E+00 -0.00000000000E+00 -0.74505805969E-08  0.93827000000E+00  0.93827000000E+00 0. -1.
     999902    2    1    2    0    0 -0.22588868707E-01 -0.48946494469E-03  0.49315934375E-02  0.10208038853E+01  0.10205418929E+01 0.  0.
     999903    2    3    3    0    0  0.10687403492E+00 -0.65869416681E-01  0.21882158374E-01  0.12877109269E+00  0.18502055703E-01 0.  0.
         14    1    1    2    0    0  0.22588868707E-01  0.48946494469E-03 -0.49315934375E-02  0.23126114660E-01  0.00000000000E+00 0. -1.
     999901    1    3    3    0    0 -0.12946290362E+00  0.65379951737E-01 -0.16950564937E-01  0.89203279265E+00  0.88000000000E+00 0. -1.
        -11    1    4    4    0    0  0.19603318580E-01 -0.19953975824E-01  0.85871525819E-02  0.29265193677E-01  0.51100000000E-03 0.  1.
         11    1    4    4    0    0  0.87270716337E-01 -0.45915440858E-01  0.13295005792E-01  0.99505899017E-01  0.51100000000E-03 0. -1.
</event>
<event>
 8    1  0.1093753E+005  0.1043930E+01  0.7957747E-01            NaN
         13   -1    0    0    0    0  0.00000000000E+00  0.00000000000E+00  0.74505805969E-08  0.10566000000E+00  0.10566000000E+00 0.  1.
     999900   -1    0    0    0    0 -0.00000000000E+00 -0.00000000000E+00 -0.74505805969E-08  0.93827000000E+00  0.93827000000E+00 0.  1.
     999902    2    1    2    0    0 -0.84817611146E-02 -0.17448440193E-01  0.15209260042E-01  0.10192782267E+01  0.10189800751E+01 0.  0.
     999903    2    3    3    0    0  0.74963498164E-01  0.40938907001E-01  0.95713728673E-01  0.12975410499E+00  0.19480496416E-01 0.  0.
         14    1    1    2    0    0  0.84817611146E-02  0.17448440193E-01 -0.15209260042E-01  0.24651773319E-01  0.00000000000E+00 0. -1.
     999901    1    3    3    0    0 -0.83445259278E-01 -0.58387347194E-01 -0.80504468631E-01  0.88952412170E+00  0.88000000000E+00 0.  1.
        -11    1    4    4    0    0  0.23735365846E-01  0.13044712711E-01  0.17759601595E-01  0.32391305799E-01  0.51100000000E-03 0. -1.
         11    1    4    4    0    0  0.51228132318E-01  0.27894194290E-01  0.77954127078E-01  0.97362799186E-01  0.51100000000E-03 0.  1.
</event>
<event>
 8    1  0.1093753E+005  0.1043930E+01  0.7957747E-01            NaN
         13   -1    0    0    0    0  0.00000000000E+00  0.00000000000E+00  0.74505805969E-08  0.10566000000E+00  0.10566000000E+00 0. -1.
     999900   -1    0    0    0    0 -0.00000000000E+00 -0.00000000000E+00 -0.74505805969E-08  0.93827000000E+00  0.93827000000E+00 0.  1.
     999902    2    1    2    0    0 -0.77274211953E-02 -0.15455592774E-01 -0.15783896852E-01  0.10205265860E+01  0.10202581992E+01 0.  0.
     999903    2    3    3    0    0 -0.12311656642E+00  0.37218651664E-01 -0.17425117854E-01  0.13143045821E+00  0.20673984978E-01 0.  0.
         14    1    1    2    0    0  0.77274211953E-02  0.15455592774E-01  0.15783896852E-01  0.23403413985E-01  0.00000000000E+00 0. -1.
     999901    1    3    3    0    0  0.11538914523E+00 -0.52674244438E-01  0.16412210024E-02  0.88909612780E+00  0.88000000000E+00 0.  1.
        -11    1    4    4    0    0 -0.94404975319E-01  0.37385876053E-01 -0.14384857989E-01  0.10255334394E+00  0.51100000000E-03 0. -1.
         11    1    4    4    0    0 -0.28711591104E-01 -0.16722438837E-03 -0.30402598652E-02  0.28877114273E-01  0.51100000000E-03 0.  1.
</event>
<event>
 8    1  0.1093753E+005  0.1043930E+01  0.7957747E-01            NaN
         13   -1    0    0    0    0  0.00000000000E+00  0.00000000000E+00  0.74505805969E-08  0.10566000000E+00  0.10566000000E+00 0.  1.
     999900   -1    0    0    0    0 -0.00000000000E+00 -0.00000000000E+00 -0.74505805969E-08  0.93827000000E+00  0.93827000000E+00 0. -1.
     999902    2    1    2    0    0  0.18069070694E-01 -0.10884454272E-01  0.11782025813E-01  0.10197684853E+01  0.10194822141E+01 0.  0.
     999903    2    3    3    0    0 -0.10297885362E+00 -0.59531233928E-01  0.46945187542E-01  0.12945642928E+00  0.20161952801E-01 0.  0.
         14    1    1    2    0    0 -0.18069070694E-01  0.10884454272E-01 -0.11782025813E-01  0.24161514704E-01  0.00000000000E+00 0. -1.
     999901    1    3    3    0    0  0.12104792432E+00  0.48646779656E-01 -0.35163161729E-01  0.89031205602E+00  0.88000000000E+00 0.  1.
        -11    1    4    4    0    0 -0.55813391552E-01 -0.22938258072E-01  0.17145404724E-01  0.62733757931E-01  0.51100000000E-03 0.  1.
         11    1    4    4    0    0 -0.47165462071E-01 -0.36592975856E-01  0.29799782818E-01  0.66722671344E-01  0.51100000000E-03 0. -1.
</event>
<event>
 8    1  0.1093753E+005  0.1043930E+01  0.7957747E-01            NaN
         13   -1    0    0    0    0  0.00000000000E+00  0.00000000000E+00  0.74505805969E-08  0.10566000000E+00  0.10566000000E+00 0. -1.
     999900   -1    0    0    0    0 -0.00000000000E+00 -0.00000000000E+00 -0.74505805969E-08  0.93827000000E+00  0.93827000000E+00 0.  1.
     999902    2    1    2    0    0 -0.47556279293E-02 -0.10375489818E-01  0.15403611703E-01  0.10247587184E+01  0.10245793736E+01 0.  0.
     999903    2    3    3    0    0  0.12547609663E+00 -0.34617864681E-01  0.28304838505E-01  0.13475060803E+00  0.20344903502E-01 0.  0.
         14    1    1    2    0    0  0.47556279293E-02  0.10375489818E-01 -0.15403611703E-01  0.19171281633E-01  0.00000000000E+00 0.  1.
     999901    1    3    3    0    0 -0.13023172456E+00  0.24242374864E-01 -0.12901226802E-01  0.89000811034E+00  0.88000000000E+00 0. -1.
        -11    1    4    4    0    0  0.38145167491E-01 -0.19875471815E-01  0.12385838064E-01  0.44763358770E-01  0.51100000000E-03 0. -1.
         11    1    4    4    0    0  0.87330929144E-01 -0.14742392867E-01  0.15919000441E-01  0.89987249255E-01  0.51100000000E-03 0.  1.
</event>
<event>
 8    1  0.1093753E+005  0.1043930E+01  0.7957747E-01            NaN
         13   -1    0    0    0    0  0.00000000000E+00  0.00000000000E+00  0.74505805969E-08  0.10566000000E+00  0.10566000000E+00 0.  1.
     999900   -1    0    0    0    0 -0.00000000000E+00 -0.00000000000E+00 -0.74505805969E-08  0.93827000000E+00  0.93827000000E+00 0.  1.
     999902    2    1    2    0    0  0.17782864558E-01  0.10617011021E-01 -0.82453674466E-02  0.10216379099E+01  0.10213946748E+01 0.  0.
     999903    2    3    3    0    0  0.31615823712E-03  0.66466778379E-01 -0.11393145338E+00  0.13338466277E+00  0.19828252782E-01 0.  0.
         14    1    1    2    0    0 -0.17782864558E-01 -0.10617011021E-01  0.82453674466E-02  0.22292090060E-01  0.00000000000E+00 0. -1.
     999901    1    3    3    0    0  0.17466706321E-01 -0.55849767358E-01  0.10568608594E+00  0.88825324717E+00  0.88000000000E+00 0. -1.
        -11    1    4    4    0    0 -0.17529633553E-02  0.36647877881E-01 -0.43744344245E-01  0.57096134791E-01  0.51100000000E-03 0. -1.
         11    1    4    4    0    0  0.20691215924E-02  0.29818900498E-01 -0.70187109140E-01  0.76288527981E-01  0.51100000000E-03 0.  1.
</event>
<event>
 8    1  0.1093753E+005  0.1043930E+01  0.7957747E-01            NaN
         13   -1    0    0    0    0  0.00000000000E+00  0.00000000000E+00  0.74505805969E-08  0.10566000000E+00  0.10566000000E+00 0.  1.
     999900   -1    0    0    0    0 -0.00000000000E+00 -0.00000000000E+00 -0.74505805969E-08  0.93827000000E+00  0.93827000000E+00 0. -1.
     999902    2    1    2    0    0  0.14439224256E-01 -0.15981082488E-01  0.99799753436E-02  0.10201921378E+01  0.10199159337E+01 0.  0.
     999903    2    3    3    0    0 -0.31351972078E-01 -0.48470282605E-01 -0.11436154564E+00  0.12967925432E+00  0.20145258272E-01 0.  0.
         14    1    1    2    0    0 -0.14439224256E-01  0.15981082488E-01 -0.99799753436E-02  0.23737862213E-01  0.00000000000E+00 0. -1.
     999901    1    3    3    0    0  0.45791196334E-01  0.32489200117E-01  0.12434152098E+00  0.89051288347E+00  0.88000000000E+00 0.  1.
        -11    1    4    4    0    0 -0.11718016823E-01 -0.19530440470E-01 -0.67250904278E-01  0.71004896102E-01  0.51100000000E-03 0.  1.
         11    1    4    4    0    0 -0.19633955255E-01 -0.28939842135E-01 -0.47110641358E-01  0.58674358215E-01  0.51100000000E-03 0. -1.
</event>
<event>
 8    1  0.1093753E+005  0.1043930E+01  0.7957747E-01            NaN
         13   -1    0    0    0    0  0.00000000000E+00  0.00000000000E+00  0.74505805969E-08  0.10566000000E+00  0.10566000000E+00 0.  1.
     999900   -1    0    0    0    0 -0.00000000000E+00 -0.00000000000E+00 -0.74505805969E-08  0.93827000000E+00  0.93827000000E+00 0. -1.
     999902    2    1    2    0    0  0.54351463502E-03 -0.22732974083E-01 -0.80822081044E-02  0.10197969188E+01  0.10195113290E+01 0.  0.
     999903    2    3    3    0    0 -0.84828870546E-01 -0.59040212298E-01 -0.79456085001E-01  0.13204645277E+00  0.21007434352E-01 0.  0.
         14    1    1    2    0    0 -0.54351463502E-03  0.22732974083E-01  0.80822081044E-02  0.24133081168E-01  0.00000000000E+00 0. -1.
     999901    1    3    3    0    0  0.85372385181E-01  0.36307238215E-01  0.71373876896E-01  0.88775046607E+00  0.88000000000E+00 0.  1.
        -11    1    4    4    0    0 -0.20952296813E-01 -0.25154690104E-01 -0.30299805809E-01  0.44610497969E-01  0.51100000000E-03 0. -1.
         11    1    4    4    0    0 -0.63876573733E-01 -0.33885522194E-01 -0.49156279191E-01  0.87435954797E-01  0.51100000000E-03 0.  1.
</event>
<event>
 8    1  0.1093753E+005  0.1043930E+01  0.7957747E-01            NaN
         13   -1    0    0    0    0  0.00000000000E+00  0.00000000000E+00  0.74505805969E-08  0.10566000000E+00  0.10566000000E+00 0.  1.
     999900   -1    0    0    0    0 -0.00000000000E+00 -0.00000000000E+00 -0.74505805969E-08  0.93827000000E+00  0.93827000000E+00 0.  1.
     999902    2    1    2    0    0 -0.62983461143E-02  0.20501124402E-01 -0.10117790065E-01  0.10202163975E+01  0.10199407644E+01 0.  0.
     999903    2    3    3    0    0 -0.11825448389E+00 -0.84296214319E-02 -0.53416084853E-01  0.13159617092E+00  0.20226037691E-01 0.  0.
         14    1    1    2    0    0  0.62983461143E-02 -0.20501124402E-01  0.10117790065E-01  0.23713602453E-01  0.00000000000E+00 0.  1.
     999901    1    3    3    0    0  0.11195613778E+00  0.28930745834E-01  0.43298294788E-01  0.88862022663E+00  0.88000000000E+00 0. -1.
        -11    1    4    4    0    0 -0.64018308598E-01 -0.89067810795E-02 -0.19053087455E-01  0.67386614750E-01  0.51100000000E-03 0. -1.
         11    1    4    4    0    0 -0.54236175297E-01  0.47715964760E-03 -0.34362997398E-01  0.64209556168E-01  0.51100000000E-03 0.  1.
</event>
<event>
 8    1  0.1093753E+005  0.1043930E+01  0.7957747E-01            NaN
         13   -1    0    0    0    0  0.00000000000E+00  0.00000000000E+00  0.74505805969E-08  0.10566000000E+00  0.10566000000E+00 0.  1.
     999900   -1    0    0    0    0 -0.00000000000E+00 -0.00000000000E+00 -0.74505805969E-08  0.93827000000E+00  0.93827000000E+00 0. -1.
     999902    2    1    2    0    0  0.78800846453E-02 -0.48778239860E-03 -0.20957419213E-01  0.10215347531E+01  0.10212892365E+01 0.  0.
     999903    2    3    3    0    0  0.60054964685E-02  0.10681498146E+00 -0.76823161637E-01  0.13325643046E+00  0.20247761411E-01 0.  0.
         14    1    1    2    0    0 -0.78800846453E-02  0.48778239860E-03  0.20957419213E-01  0.22395246946E-01  0.00000000000E+00 0.  1.
     999901    1    3    3    0    0  0.18745881768E-02 -0.10730276386E+00  0.55865742424E-01  0.88827832259E+00  0.88000000000E+00 0. -1.
        -11    1    4    4    0    0  0.11942816392E-01  0.92388602344E-01 -0.63587937637E-01  0.11279171796E+00  0.51100000000E-03 0. -1.
         11    1    4    4    0    0 -0.59373199235E-02  0.14426379120E-01 -0.13235224001E-01  0.20464712501E-01  0.51100000000E-03 0.  1.
</event>
<event>
 8    1  0.1093753E+005  0.1043930E+01  0.7957747E-01            NaN
         13   -1    0    0    0    0  0.00000000000E+00  0.00000000000E+00  0.74505805969E-08  0.10566000000E+00  0.10566000000E+00 0.  1.
     999900   -1    0    0    0    0 -0.00000000000E+00 -0.00000000000E+00 -0.74505805969E-08  0.93827000000E+00  0.93827000000E+00 0. -1.
     999902    2    1    2    0    0 -0.13062539557E-01 -0.14623534584E-01  0.12357348979E-01  0.10207528177E+01  0.10204896536E+01 0.  0.
     999903    2    3    3    0    0 -0.88055401107E-01  0.68115818730E-01  0.67795026367E-01  0.13196540450E+00  0.20619989324E-01 0.  0.
         14    1    1    2    0    0  0.13062539557E-01  0.14623534584E-01 -0.12357348979E-01  0.23177182253E-01  0.00000000000E+00 0. -1.
     999901    1    3    3    0    0  0.74992861549E-01 -0.82739353313E-01 -0.55437677388E-01  0.88878741325E+00  0.88000000000E+00 0.  1.
        -11    1    4    4    0    0 -0.47549045762E-01  0.48065997375E-01  0.46062580583E-01  0.81812433697E-01  0.51100000000E-03 0.  1.
         11    1    4    4    0    0 -0.40506355345E-01  0.20049821354E-01  0.21732445785E-01  0.50152970804E-01  0.51100000000E-03 0. -1.
</event>
<event>
 8    1  0.1093753E+005  0.1043930E+01  0.7957747E-01            NaN
         13   -1    0    0    0    0  0.00000000000E+00  0.00000000000E+00  0.74505805969E-08  0.10566000000E+00  0.10566000000E+00 0. -1.
     999900   -1    0    0    0    0 -0.00000000000E+00 -0.00000000000E+00 -0.74505805969E-08  0.93827000000E+00  0.93827000000E+00 0.  1.
     999902    2    1    2    0    0  0.91689649891E-02 -0.10314762732E-01 -0.19314686774E-01  0.10201913949E+01  0.10199151733E+01 0.  0.
     999903    2    3    3    0    0 -0.59177839198E-01  0.10820204757E+00  0.29058057427E-01  0.12830718580E+00  0.20215426690E-01 0.  0.
         14    1    1    2    0    0 -0.91689649891E-02  0.10314762732E-01  0.19314686774E-01  0.23738605148E-01  0.00000000000E+00 0. -1.
     999901    1    3    3    0    0  0.68346804187E-01 -0.11851681031E+00 -0.48372744201E-01  0.89188420905E+00  0.88000000000E+00 0.  1.
        -11    1    4    4    0    0 -0.23904906818E-01  0.42652777981E-01  0.14671793309E-02  0.48919503019E-01  0.51100000000E-03 0. -1.
         11    1    4    4    0    0 -0.35272932380E-01  0.65549269593E-01  0.27590878096E-01  0.79387682785E-01  0.51100000000E-03 0.  1.
</event>
<event>
 7    1  0.1093753E+005  0.1043930E+01  0.7957747E-01            NaN
         13   -1    0    0    0    0  0.00000000000E+00  0.00000000000E+00  0.74505805969E-08  0.10566000000E+00  0.10566000000E+00 0. -1.
     999900   -1    0    0    0    0 -0.00000000000E+00 -0.00000000000E+00 -0.74505805969E-08  0.93827000000E+00  0.93827000000E+00 0. -1.
     999902    2    1    2    0    0 -0.15493977372E-01  0.98526661745E-02 -0.15534624836E-01  0.10198787436E+01  0.10195951102E+01 0.  0.
         14    1    1    2    0    0  0.15493977372E-01 -0.98526661745E-02  0.15534624836E-01  0.24051256399E-01  0.00000000000E+00 0. -1.
     999901    1    3    3    0    0 -0.96556836598E-01 -0.56484912294E-01 -0.79131689846E-01  0.89060406037E+00  0.88000000000E+00 0. -1.
        -11    1    3    3    0    0  0.11010542540E-01  0.15621023091E-02 -0.45485421372E-02  0.12025912324E-01  0.51100000000E-03 0.  1.
         11    1    3    3    0    0  0.70052316686E-01  0.64775476159E-01  0.68145607147E-01  0.11724877091E+00  0.51100000000E-03 0. -1.
</event>
<event>
 8    1  0.1093753E+005  0.1043930E+01  0.7957747E-01            NaN
         13   -1    0    0    0    0  0.00000000000E+00  0.00000000000E+00  0.74505805969E-08  0.10566000000E+00  0.10566000000E+00 0.  1.
     999900   -1    0    0    0    0 -0.00000000000E+00 -0.00000000000E+00 -0.74505805969E-08  0.93827000000E+00  0.93827000000E+00 0.  1.
     999902    2    1    2    0    0  0.19841099807E-01  0.11657898385E-02 -0.14731285136E-01  0.10191905766E+01  0.10188902750E+01 0.  0.
     999903    2    3    3    0    0  0.86593058956E-01 -0.82447809578E-01 -0.52142808700E-01  0.13192135020E+00  0.19707130063E-01 0.  0.
         14    1    1    2    0    0 -0.19841099807E-01 -0.11657898385E-02  0.14731285136E-01  0.24739423381E-01  0.00000000000E+00 0. -1.
     999901    1    3    3    0    0 -0.66751959149E-01  0.83613599417E-01  0.37411523564E-01  0.88726922642E+00  0.88000000000E+00 0.  1.
        -11    1    4    4    0    0  0.66355210894E-01 -0.53208979530E-01 -0.42453016217E-01  0.95061712704E-01  0.51100000000E-03 0. -1.
         11    1    4    4    0    0  0.20237848062E-01 -0.29238830049E-01 -0.96897924824E-02  0.36859637494E-01  0.51100000000E-03 0.  1.
</event>
<event>
 8    1  0.1093753E+005  0.1043930E+01  0.7957747E-01            NaN
         13   -1    0    0    0    0  0.00000000000E+00  0.00000000000E+00  0.74505805969E-08  0.10566000000E+00  0.10566000000E+00 0. -1.
     999900   -1    0    0    0    0 -0.00000000000E+00 -0.00000000000E+00 -0.74505805969E-08  0.93827000000E+00  0.93827000000E+00 0.  1.
     999902    2    1    2    0    0  0.70476797661E-02 -0.20250832311E-01 -0.79489161410E-02  0.10210618722E+01  0.10208057581E+01 0.  0.
     999903    2    3    3    0    0 -0.30009349528E-01 -0.10723318996E+00  0.69166564127E-01  0.13264420512E+00  0.20271987317E-01 0.  0.
         14    1    1    2    0    0 -0.70476797661E-02  0.20250832311E-01  0.79489161410E-02  0.22868127758E-01  0.00000000000E+00 0. -1.
     999901    1    3    3    0    0  0.37057029294E-01  0.86982357650E-01 -0.77115480268E-01  0.88841766712E+00  0.88000000000E+00 0.  1.
        -11    1    4    4    0    0 -0.23978282608E-01 -0.82217544128E-01  0.62596440683E-01  0.10608137493E+00  0.51100000000E-03 0. -1.
         11    1    4    4    0    0 -0.60310669207E-02 -0.25015645832E-01  0.65701234436E-02  0.26562830190E-01  0.51100000000E-03 0.  1.
</event>
<event>
 8    1  0.1093753E+005  0.1043930E+01  0.7957747E-01            NaN
         13   -1    0    0    0    0  0.00000000000E+00  0.00000000000E+00  0.74505805969E-08  0.10566000000E+00  0.10566000000E+00 0.  1.
     999900   -1    0    0    0    0 -0.00000000000E+00 -0.00000000000E+00 -0.74505805969E-08  0.93827000000E+00  0.93827000000E+00 0. -1.
     999902    2    1    2    0    0 -0.23009528802E-01 -0.73906203779E-03 -0.42420143515E-02  0.10205210420E+01  0.10202525265E+01 0.  0.
     999903    2    3    3    0    0 -0.55078095903E-01  0.64600376215E-01 -0.99659969729E-01  0.13237565898E+00  0.19606128353E-01 0.  0.
         14    1    1    2    0    0  0.23009528802E-01  0.73906203779E-03  0.42420143515E-02  0.23408957989E-01  0.00000000000E+00 0.  1.
     999901    1    3    3    0    0  0.32068567101E-01 -0.65339438253E-01  0.95417955378E-01  0.88814538303E+00  0.88000000000E+00 0.  1.
        -11    1    4    4    0    0 -0.28565616476E-01  0.40403889457E-01 -0.70464906325E-01  0.86104778452E-01  0.51100000000E-03 0.  1.
         11    1    4    4    0    0 -0.26512479427E-01  0.24196486759E-01 -0.29195063405E-01  0.46270880530E-01  0.51100000000E-03 0. -1.
</event>
<event>
 8    1  0.1093753E+005  0.1043930E+01  0.7957747E-01            NaN
         13   -1    0    0    0    0  0.00000000000E+00  0.00000000000E+00  0.74505805969E-08  0.10566000000E+00  0.10566000000E+00 0. -1.
     999900   -1    0    0    0    0 -0.00000000000E+00 -0.00000000000E+00 -0.74505805969E-08  0.93827000000E+00  0.93827000000E+00 0. -1.
     999902    2    1    2    0    0 -0.38445097787E-02 -0.11138488830E-01  0.19916870859E-01  0.10207885235E+01  0.10205261789E+01 0.  0.
     999903    2    3    3    0    0  0.48640288521E-01  0.98772316442E-01 -0.63374940932E-01  0.12850349895E+00  0.19362797848E-01 0.  0.
         14    1    1    2    0    0  0.38445097787E-02  0.11138488830E-01 -0.19916870859E-01  0.23141476480E-01  0.00000000000E+00 0.  1.
     999901    1    3    3    0    0 -0.52484798300E-01 -0.10991080527E+00  0.83291811791E-01  0.89228502457E+00  0.88000000000E+00 0.  1.
        -11    1    4    4    0    0  0.41098549791E-01  0.91187845033E-01 -0.51461378781E-01  0.11248488122E+00  0.51100000000E-03 0.  1.
         11    1    4    4    0    0  0.75417387298E-02  0.75844714085E-02 -0.11913562151E-01  0.16018617723E-01  0.51100000000E-03 0. -1.
</event>
<event>
 8    1  0.1093753E+005  0.1043930E+01  0.7957747E-01            NaN
         13   -1    0    0    0    0  0.00000000000E+00  0.00000000000E+00  0.74505805969E-08  0.10566000000E+00  0.10566000000E+00 0. -1.
     999900   -1    0    0    0    0 -0.00000000000E+00 -0.00000000000E+00 -0.74505805969E-08  0.93827000000E+00  0.93827000000E+00 0. -1.
     999902    2    1    2    0    0  0.13165211427E-01  0.15648998992E-01  0.94603522617E-02  0.10213975295E+01  0.10211489613E+01 0.  0.
     999903    2    3    3    0    0  0.60328867268E-01  0.91050775403E-01  0.75747637263E-01  0.13443425943E+00  0.20125844845E-01 0.  0.
         14    1    1    2    0    0 -0.13165211427E-01 -0.15648998992E-01 -0.94603522617E-02  0.22532470488E-01  0.00000000000E+00 0.  1.
     999901    1    3    3    0    0 -0.47163655842E-01 -0.75401776411E-01 -0.66287285002E-01  0.88696327008E+00  0.88000000000E+00 0.  1.
        -11    1    4    4    0    0  0.46806227342E-01  0.65959778087E-01  0.45213430282E-01  0.92660836615E-01  0.51100000000E-03 0.  1.
         11    1    4    4    0    0  0.13522639926E-01  0.25090997316E-01  0.30534206982E-01  0.41773422818E-01  0.51100000000E-03 0. -1.
</event>
<event>
 7    1  0.1093753E+005  0.1043930E+01  0.7957747E-01            NaN
         13   -1    0    0    0    0  0.00000000000E+00  0.00000000000E+00  0.74505805969E-08  0.10566000000E+00  0.10566000000E+00 0. -1.
     999900   -1    0    0    0    0 -0.00000000000E+00 -0.00000000000E+00 -0.74505805969E-08  0.93827000000E+00  0.93827000000E+00 0.  1.
     999903    2    1    2    0    0 -0.97020295651E-01 -0.49875789374E-01 -0.30048855876E-01  0.11494129109E+00  0.20199864477E-01 0.  0.
         14    1    1    2    0    0 -0.17873498424E-01  0.25701029236E-01  0.26761569047E-01  0.41184783933E-01  0.00000000000E+00 0. -1.
     999901    1    1    2    0    0  0.11489379408E+00  0.24174760138E-01  0.32872868291E-02  0.88780392497E+00  0.88000000000E+00 0.  1.
        -11    1    3    3    0    0 -0.21841085903E-01 -0.17911358965E-01 -0.11081293974E-02  0.28272581862E-01  0.51100000000E-03 0.  1.
         11    1    3    3    0    0 -0.75179209748E-01 -0.31964430409E-01 -0.28940726479E-01  0.86668709231E-01  0.51100000000E-03 0. -1.
</event>
<event>
 8    1  0.1093753E+005  0.1043930E+01  0.7957747E-01            NaN
         13   -1    0    0    0    0  0.00000000000E+00  0.00000000000E+00  0.74505805969E-08  0.10566000000E+00  0.10566000000E+00 0. -1.
     999900   -1    0    0    0    0 -0.00000000000E+00 -0.00000000000E+00 -0.74505805969E-08  0.93827000000E+00  0.93827000000E+00 0.  1.
     999902    2    1    2    0    0 -0.10705274188E-01 -0.20817034779E-01  0.25731801313E-02  0.10203806245E+01  0.10201088401E+01 0.  0.
     999903    2    3    3    0    0  0.10545712168E+00  0.14888746594E-01 -0.70137333256E-01  0.12905833494E+00  0.19847645026E-01 0.  0.
         14    1    1    2    0    0  0.10705274188E-01  0.20817034779E-01 -0.25731801313E-02  0.23549375542E-01  0.00000000000E+00 0.  1.
     999901    1    3    3    0    0 -0.11616239587E+00 -0.35705781373E-01  0.72710513387E-01  0.89132228952E+00  0.88000000000E+00 0. -1.
        -11    1    4    4    0    0  0.66084949028E-01  0.13643909089E-02 -0.49563541600E-01  0.82618931411E-01  0.51100000000E-03 0. -1.
         11    1    4    4    0    0  0.39372172650E-01  0.13524355685E-01 -0.20573791656E-01  0.46439403528E-01  0.51100000000E-03 0.  1.
</event>
<event>
 8    1  0.1093753E+005  0.1043930E+01  0.7957747E-01            NaN
         13   -1    0    0    0    0  0.00000000000E+00  0.00000000000E+00  0.74505805969E-08  0.10566000000E+00  0.10566000000E+00 0. -1.
     999900   -1    0    0    0    0 -0.00000000000E+00 -0.00000000000E+00 -0.74505805969E-08  0.93827000000E+00  0.93827000000E+00 0.  1.
     999902    2    1    2    0    0 -0.28395688533E-01 -0.14512404831E-03 -0.54676618898E-02  0.10150123321E+01  0.10146003168E+01 0.  0.
     999903    2    3    3    0    0 -0.44173169476E-01  0.10389474420E+00 -0.52647821309E-01  0.12748814061E+00  0.27130170184E-01 0.  0.
         14    1    1    2    0    0  0.28395688533E-01  0.14512404831E-03  0.54676618898E-02  0.28917667866E-01  0.00000000000E+00 0. -1.
     999901    1    3    3    0    0  0.15777480943E-01 -0.10403986825E+00  0.47180159420E-01  0.88752419152E+00  0.88000000000E+00 0. -1.
        -11    1    4    4    0    0 -0.29255371933E-01  0.49243683819E-01 -0.38746655889E-01  0.69154765899E-01  0.51100000000E-03 0. -1.
         11    1    4    4    0    0 -0.14917797543E-01  0.54651060383E-01 -0.13901165420E-01  0.58333374714E-01  0.51100000000E-03 0.  1.
</event>
<event>
 8    1  0.1093753E+005  0.1043930E+01  0.7957747E-01            NaN
         13   -1    0    0    0    0  0.00000000000E+00  0.00000000000E+00  0.74505805969E-08  0.10566000000E+00  0.10566000000E+00 0.  1.
     999900   -1    0    0    0    0 -0.00000000000E+00 -0.00000000000E+00 -0.74505805969E-08  0.93827000000E+00  0.93827000000E+00 0.  1.
     999902    2    1    2    0    0 -0.45325099001E-02 -0.23166791695E-01 -0.88603041021E-04  0.10203238200E+01  0.10200507075E+01 0.  0.
     999903    2    3    3    0    0 -0.70431643360E-02 -0.27049307397E-01 -0.12665099340E+00  0.13125722184E+00  0.20167125790E-01 0.  0.
         14    1    1    2    0    0  0.45325099001E-02  0.23166791695E-01  0.88603041021E-04  0.23606179994E-01  0.00000000000E+00 0.  1.
     999901    1    3    3    0    0  0.25106544359E-02  0.38825157028E-02  0.12656239036E+00  0.88906659816E+00  0.88000000000E+00 0. -1.
        -11    1    4    4    0    0 -0.20462620509E-02 -0.28802498520E-01 -0.10031942607E+00  0.10439357968E+00  0.51100000000E-03 0. -1.
         11    1    4    4    0    0 -0.49969022851E-02  0.17531911224E-02 -0.26331567329E-01  0.26863642168E-01  0.51100000000E-03 0.  1.
</event>
<event>
 8    1  0.1093753E+005  0.1043930E+01  0.7957747E-01            NaN
         13   -1    0    0    0    0  0.00000000000E+00  0.00000000000E+00  0.74505805969E-08  0.10566000000E+00  0.10566000000E+00 0.  1.
     999900   -1    0    0    0    0 -0.00000000000E+00 -0.00000000000E+00 -0.74505805969E-08  0.93827000000E+00  0.93827000000E+00 0.  1.
     999902    2    1    2    0    0  0.29589328238E-02 -0.52651800730E-02 -0.22271112312E-01  0.10208544751E+01  0.10205936407E+01 0.  0.
     999903    2    3    3    0    0  0.47930378858E-01 -0.75559078367E-01  0.91640840402E-01  0.12959716320E+00  0.19770825414E-01 0.  0.
         14    1    1    2    0    0 -0.29589328238E-02  0.52651800730E-02  0.22271112312E-01  0.23075524876E-01  0.00000000000E+00 0.  1.
     999901    1    3    3    0    0 -0.44971446034E-01  0.70293898294E-01 -0.11391195271E+00  0.89125731193E+00  0.88000000000E+00 0.  1.
        -11    1    4    4    0    0  0.13532175235E-01 -0.38495774303E-01  0.45808028927E-01  0.61348847104E-01  0.51100000000E-03 0. -1.
         11    1    4    4    0    0  0.34398203623E-01 -0.37063304065E-01  0.45832811475E-01  0.68248316092E-01  0.51100000000E-03 0.  1.
</event>
<event>
 8    1  0.1093753E+005  0.1043930E+01  0.7957747E-01            NaN
         13   -1    0    0    0    0  0.00000000000E+00  0.00000000000E+00  0.74505805969E-08  0.10566000000E+00  0.10566000000E+00 0. -1.
     999900   -1    0    0    0    0 -0.00000000000E+00 -0.00000000000E+00 -0.74505805969E-08  0.93827000000E+00  0.93827000000E+00 0.  1.
     999902    2    1    2    0    0  0.14091867486E-01 -0.49608670812E-02  0.17861286798E-01  0.10206444573E+01  0.10203787982E+01 0.  0.
     999903    2    3    3    0    0  0.13111750363E+00 -0.52837792871E-02 -0.36997255374E-02  0.13263545904E+00  0.18940933027E-01 0.  0.
         14    1    1    2    0    0 -0.14091867486E-01  0.49608670812E-02 -0.17861286798E-01  0.23285542672E-01  0.00000000000E+00 0.  1.
     999901    1    3    3    0    0 -0.11702563614E+00  0.32291220589E-03  0.21561012336E-01  0.88800899829E+00  0.88000000000E+00 0.  1.
        -11    1    4    4    0    0  0.46087919475E-01  0.48506871983E-02  0.47428840834E-02  0.46587354059E-01  0.51100000000E-03 0. -1.
         11    1    4    4    0    0  0.85029584155E-01 -0.10134466485E-01 -0.84426096208E-02  0.86048104981E-01  0.51100000000E-03 0.  1.
</event>
<event>
 8    1  0.1093753E+005  0.1043930E+01  0.7957747E-01            NaN
         13   -1    0    0    0    0  0.00000000000E+00  0.00000000000E+00  0.74505805969E-08  0.10566000000E+00  0.10566000000E+00 0. -1.
     999900   -1    0    0    0    0 -0.00000000000E+00 -0.00000000000E+00 -0.74505805969E-08  0.93827000000E+00  0.93827000000E+00 0. -1.
     999902    2    1    2    0    0 -0.85227638470E-02  0.88900476720E-02  0.19752921190E-01  0.10206523638E+01  0.10203868871E+01 0.  0.
     999903    2    3    3    0    0 -0.97946658087E-01  0.82667994748E-01 -0.24167504680E-01  0.13196297930E+00  0.20065254445E-01 0.  0.
         14    1    1    2    0    0  0.85227638470E-02 -0.88900476720E-02 -0.19752921190E-01  0.23277636193E-01  0.00000000000E+00 0.  1.
     999901    1    3    3    0    0  0.89423894240E-01 -0.73777947076E-01  0.43920425870E-01  0.88868938451E+00  0.88000000000E+00 0. -1.
        -11    1    4    4    0    0 -0.17856313634E-01  0.83658379298E-02  0.13532042103E-02  0.19771885684E-01  0.51100000000E-03 0.  1.
         11    1    4    4    0    0 -0.80090344452E-01  0.74302156818E-01 -0.25520708891E-01  0.11219109361E+00  0.51100000000E-03 0. -1.
</event>
<event>
 8    1  0.1093753E+005  0.1043930E+01  0.7957747E-01            NaN
         13   -1    0    0    0    0  0.00000000000E+00  0.00000000000E+00  0.74505805969E-08  0.10566000000E+00  0.10566000000E+00 0.  1.
     999900   -1    0    0    0    0 -0.00000000000E+00 -0.00000000000E+00 -0.74505805969E-08  0.93827000000E+00  0.93827000000E+00 0. -1.
     999902    2    1    2    0    0 -0.13381938573E-01 -0.32669622486E-02  0.18832489939E-01  0.10205973619E+01  0.10203306146E+01 0.  0.
     999903    2    3    3    0    0  0.40637992881E-01 -0.39265649074E-01  0.11828960132E+00  0.13261888502E+00  0.20052461678E-01 0.  0.
         14    1    1    2    0    0  0.13381938573E-01  0.32669622486E-02 -0.18832489939E-01  0.23332638077E-01  0.00000000000E+00 0. -1.
     999901    1    3    3    0    0 -0.54019931454E-01  0.35998686825E-01 -0.99457111382E-01  0.88797847691E+00  0.88000000000E+00 0. -1.
        -11    1    4    4    0    0  0.89936005495E-02 -0.52567770891E-02  0.42186021645E-01  0.43456185974E-01  0.51100000000E-03 0. -1.
         11    1    4    4    0    0  0.31644392331E-01 -0.34008871985E-01  0.76103579676E-01  0.89162699041E-01  0.51100000000E-03 0.  1.
</event>
<event>
 8    1  0.1093753E+005  0.1043930E+01  0.7957747E-01            NaN
         13   -1    0    0    0    0  0.00000000000E+00  0.00000000000E+00  0.74505805969E-08  0.10566000000E+00  0.10566000000E+00 0.  1.
     999900   -1    0    0    0    0 -0.00000000000E+00 -0.00000000000E+00 -0.74505805969E-08  0.93827000000E+00  0.93827000000E+00 0.  1.
     999902    2    1    2    0    0  0.53822918453E-02 -0.89065010737E-02 -0.23524132378E-01  0.10182068658E+01  0.10178818900E+01 0.  0.
     999903    2    3    3    0    0  0.96897708131E-01  0.48673248631E-01  0.63563053905E-01  0.12732265506E+00  0.20311220978E-01 0.  0.
         14    1    1    2    0    0 -0.53822918453E-02  0.89065010737E-02  0.23524132378E-01  0.25723134160E-01  0.00000000000E+00 0.  1.
     999901    1    3    3    0    0 -0.91515416286E-01 -0.57579749705E-01 -0.87087186283E-01  0.89088421078E+00  0.88000000000E+00 0.  1.
        -11    1    4    4    0    0  0.38228606292E-01  0.21041757260E-01  0.37100903152E-01  0.57279315842E-01  0.51100000000E-03 0.  1.
         11    1    4    4    0    0  0.58669101839E-01  0.27631491372E-01  0.26462150753E-01  0.70043339223E-01  0.51100000000E-03 0. -1.
</event>
<event>
 8    1  0.1093753E+005  0.1043930E+01  0.7957747E-01            NaN
         13   -1    0    0    0    0  0.00000000000E+00  0.00000000000E+00  0.74505805969E-08  0.10566000000E+00  0.10566000000E+00 0. -1.
     999900   -1    0    0    0    0 -0.00000000000E+00 -0.00000000000E+00 -0.74505805969E-08  0.93827000000E+00  0.93827000000E+00 0. -1.
     999902    2    1    2    0    0 -0.22775659819E-01 -0.59775628626E-02 -0.67831457803E-02  0.10194254493E+01  0.10191308913E+01 0.  0.
     999903    2    3    3    0    0  0.30042748886E-01  0.96412470209E-01 -0.77905239162E-01  0.12907054516E+00  0.19800206233E-01 0.  0.
         14    1    1    2    0    0  0.22775659819E-01  0.59775628626E-02  0.67831457803E-02  0.24504550692E-01  0.00000000000E+00 0.  1.
     999901    1    3    3    0    0 -0.52818408705E-01 -0.10239003307E+00  0.71122093382E-01  0.89035490415E+00  0.88000000000E+00 0. -1.
        -11    1    4    4    0    0  0.14610494782E-01  0.61102749335E-01 -0.58824735380E-01  0.86067549911E-01  0.51100000000E-03 0. -1.
         11    1    4    4    0    0  0.15432254104E-01  0.35309720874E-01 -0.19080503782E-01  0.43002995251E-01  0.51100000000E-03 0.  1.
</event>
<event>
 8    1  0.1093753E+005  0.1043930E+01  0.7957747E-01            NaN
         13   -1    0    0    0    0  0.00000000000E+00  0.00000000000E+00  0.74505805969E-08  0.10566000000E+00  0.10566000000E+00 0. -1.
     999900   -1    0    0    0    0 -0.00000000000E+00 -0.00000000000E+00 -0.74505805969E-08  0.93827000000E+00  0.93827000000E+00 0. -1.
     999902    2    1    2    0    0  0.20716758879E-01 -0.89298134098E-02 -0.69511907631E-02  0.10203239686E+01  0.10200508596E+01 0.  0.
     999903    2    3    3    0    0 -0.72321909265E-01  0.89735784938E-01  0.51814942171E-01  0.12799860615E+00  0.20393265717E-01 0.  0.
         14    1    1    2    0    0 -0.20716758879E-01  0.89298134098E-02  0.69511907631E-02  0.23606031411E-01  0.00000000000E+00 0.  1.
     999901    1    3    3    0    0  0.93038668144E-01 -0.98665598347E-01 -0.58766132934E-01  0.89232536244E+00  0.88000000000E+00 0.  1.
        -11    1    4    4    0    0 -0.23270100267E-01  0.44909169236E-01  0.21637990777E-01  0.55016314070E-01  0.51100000000E-03 0.  1.
         11    1    4    4    0    0 -0.49051808998E-01  0.44826615702E-01  0.30176951394E-01  0.72982292083E-01  0.51100000000E-03 0. -1.
</event>
<event>
 8    1  0.1093753E+005  0.1043930E+01  0.7957747E-01            NaN
         13   -1    0    0    0    0  0.00000000000E+00  0.00000000000E+00  0.74505805969E-08  0.10566000000E+00  0.10566000000E+00 0.  1.
     999900   -1    0    0    0    0 -0.00000000000E+00 -0.00000000000E+00 -0.74505805969E-08  0.93827000000E+00  0.93827000000E+00 0.  1.
     999902    2    1    2    0    0  0.16825701951E-01 -0.13759319777E-01  0.11551434335E-01  0.10193158016E+01  0.10190185693E+01 0.  0.
     999903    2    3    3    0    0 -0.42769559795E-01 -0.86371407413E-01 -0.83744342298E-01  0.12920041834E+00  0.19757984960E-01 0.  0.
         14    1    1    2    0    0 -0.16825701951E-01  0.13759319777E-01 -0.11551434335E-01  0.24614198384E-01  0.00000000000E+00 0.  1.
     999901    1    3    3    0    0  0.59595261746E-01  0.72612087636E-01  0.95295776634E-01  0.89011538327E+00  0.88000000000E+00 0. -1.
        -11    1    4    4    0    0 -0.30986366714E-01 -0.45531301835E-01 -0.55325280796E-01  0.78066652196E-01  0.51100000000E-03 0. -1.
         11    1    4    4    0    0 -0.11783193081E-01 -0.40840105578E-01 -0.28419061503E-01  0.51133766148E-01  0.51100000000E-03 0.  1.
</event>
<event>
 8    1  0.1093753E+005  0.1043930E+01  0.7957747E-01            NaN
         13   -1    0    0    0    0  0.00000000000E+00  0.00000000000E+00  0.74505805969E-08  0.10566000000E+00  0.10566000000E+00 0. -1.
     999900   -1    0    0    0    0 -0.00000000000E+00 -0.00000000000E+00 -0.74505805969E-08  0.93827000000E+00  0.93827000000E+00 0.  1.
     999902    2    1    2    0    0 -0.14315453865E-01  0.12691029566E-01 -0.12785243128E-01  0.10209200697E+01  0.10206607330E+01 0.  0.
     999903    2    3    3    0    0  0.99233410004E-02 -0.12425753019E+00  0.25990939271E-01  0.12915439447E+00  0.21608382167E-01 0.  0.
         14    1    1    2    0    0  0.14315453865E-01 -0.12691029566E-01  0.12785243128E-01  0.23009930305E-01  0.00000000000E+00 0. -1.
     999901    1    3    3    0    0 -0.24238794866E-01  0.13694855976E+00 -0.38776182400E-01  0.89176567523E+00  0.88000000000E+00 0. -1.
        -11    1    4    4    0    0  0.27352933900E-02 -0.26781089010E-02 -0.17535159246E-02  0.42414662928E-02  0.51100000000E-03 0.  1.
         11    1    4    4    0    0  0.71880476104E-02 -0.12157942129E+00  0.27744455196E-01  0.12491292817E+00  0.51100000000E-03 0. -1.
</event>
<event>
 8    1  0.1093753E+005  0.1043930E+01  0.7957747E-01            NaN
         13   -1    0    0    0    0  0.00000000000E+00  0.00000000000E+00  0.74505805969E-08  0.10566000000E+00  0.10566000000E+00 0. -1.
     999900   -1    0    0    0    0 -0.00000000000E+00 -0.00000000000E+00 -0.74505805969E-08  0.93827000000E+00  0.93827000000E+00 0.  1.
     999902    2    1    2    0    0  0.41814237454E-02  0.24829449064E-01 -0.32282650928E-02  0.10185448165E+01  0.10182284300E+01 0.  0.
     999903    2    3    3    0    0  0.12101650149E+00  0.10209479743E-01 -0.41503085523E-01  0.12987775806E+00  0.19912278156E-01 0.  0.
         14    1    1    2    0    0 -0.41814237454E-02 -0.24829449064E-01  0.32282650928E-02  0.25385183491E-01  0.00000000000E+00 0. -1.
     999901    1    3    3    0    0 -0.11683507774E+00  0.14619969321E-01  0.38274820431E-01  0.88866705845E+00  0.88000000000E+00 0.  1.
        -11    1    4    4    0    0  0.60973717139E-01 -0.44661458664E-02 -0.17814622778E-01  0.63681728513E-01  0.51100000000E-03 0.  1.
         11    1    4    4    0    0  0.60042784350E-01  0.14675625609E-01 -0.23688462746E-01  0.66196029547E-01  0.51100000000E-03 0. -1.
</event>
<event>
 8    1  0.1093753E+005  0.1043930E+01  0.7957747E-01            NaN
         13   -1    0    0    0    0  0.00000000000E+00  0.00000000000E+00  0.74505805969E-08  0.10566000000E+00  0.10566000000E+00 0.  1.
     999900   -1    0    0    0    0 -0.00000000000E+00 -0.00000000000E+00 -0.74505805969E-08  0.93827000000E+00  0.93827000000E+00 0. -1.
     999902    2    1    2    0    0 -0.11636570223E-01 -0.20218553020E-01  0.52314041492E-02  0.10200225275E+01  0.10197423152E+01 0.  0.
     999903    2    3    3    0    0 -0.12512292511E+00  0.79062044079E-02 -0.33852496120E-01  0.13142942263E+00  0.20234801285E-01 0.  0.
         14    1    1    2    0    0  0.11636570223E-01  0.20218553020E-01 -0.52314041492E-02  0.23907472517E-01  0.00000000000E+00 0.  1.
     999901    1    3    3    0    0  0.11348635489E+00 -0.28124757428E-01  0.39083900269E-01  0.88859310485E+00  0.88000000000E+00 0.  1.
        -11    1    4    4    0    0 -0.19968712819E-01  0.16373086724E-02 -0.13430144397E-01  0.24125923212E-01  0.51100000000E-03 0.  1.
         11    1    4    4    0    0 -0.10515421229E+00  0.62688957355E-02 -0.20422351723E-01  0.10730349942E+00  0.51100000000E-03 0. -1.
</event>
<event>
 8    1  0.1093753E+005  0.1043930E+01  0.7957747E-01            NaN
         13   -1    0    0    0    0  0.00000000000E+00  0.00000000000E+00  0.74505805969E-08  0.10566000000E+00  0.10566000000E+00 0. -1.
     999900   -1    0    0    0    0 -0.00000000000E+00 -0.00000000000E+00 -0.74505805969E-08  0.93827000000E+00  0.93827000000E+00 0. -1.
     999902    2    1    2    0    0 -0.51175642984E-02  0.10640614665E-01 -0.21278719794E-01  0.10195949212E+01  0.10193044723E+01 0.  0.
     999903    2    3    3    0    0  0.20919120531E-01 -0.67698547596E-01  0.10336816020E+00  0.12698538842E+00  0.20484369104E-01 0.  0.
         14    1    1    2    0    0  0.51175642984E-02 -0.10640614665E-01  0.21278719794E-01  0.24335078814E-01  0.00000000000E+00 0. -1.
     999901    1    3    3    0    0 -0.26036684830E-01  0.78339162261E-01 -0.12464687999E+00  0.89260953277E+00  0.88000000000E+00 0. -1.
        -11    1    4    4    0    0  0.18620610586E-01 -0.27268895406E-01  0.41410669619E-01  0.52966257887E-01  0.51100000000E-03 0. -1.
         11    1    4    4    0    0  0.22985099457E-02 -0.40429652190E-01  0.61957490580E-01  0.74019130529E-01  0.51100000000E-03 0.  1.
</event>
<event>
 8    1  0.1093753E+005  0.1043930E+01  0.7957747E-01            NaN
         13   -1    0    0    0    0  0.00000000000E+00  0.00000000000E+00  0.74505805969E-08  0.10566000000E+00  0.10566000000E+00 0. -1.
     999900   -1    0    0    0    0 -0.00000000000E+00 -0.00000000000E+00 -0.74505805969E-08  0.93827000000E+00  0.93827000000E+00 0. -1.
     999902    2    1    2    0    0 -0.17612107332E-01  0.16249481183E-01  0.43440571793E-02  0.10195762981E+01  0.10192853991E+01 0.  0.
     999903    2    3    3    0    0  0.88185842157E-01  0.62867953507E-02  0.92602662754E-01  0.12880020801E+00  0.14070319150E-01 0.  0.
         14    1    1    2    0    0  0.17612107332E-01 -0.16249481183E-01 -0.43440571793E-02  0.24353701899E-01  0.00000000000E+00 0.  1.
     999901    1    3    3    0    0 -0.10579794949E+00  0.99626858327E-02 -0.88258605575E-01  0.89077609009E+00  0.88000000000E+00 0.  1.
        -11    1    4    4    0    0  0.51423025015E-01  0.99534004622E-02  0.50095493312E-01  0.72479081491E-01  0.51100000000E-03 0.  1.
         11    1    4    4    0    0  0.36762817141E-01 -0.36666051115E-02  0.42507169442E-01  0.56321126517E-01  0.51100000000E-03 0. -1.
</event>
<event>
 8    1  0.1093753E+005  0.1043930E+01  0.7957747E-01            NaN
         13   -1    0    0    0    0  0.00000000000E+00  0.00000000000E+00  0.74505805969E-08  0.10566000000E+00  0.10566000000E+00 0. -1.
     999900   -1    0    0    0    0 -0.00000000000E+00 -0.00000000000E+00 -0.74505805969E-08  0.93827000000E+00  0.93827000000E+00 0.  1.
     999902    2    1    2    0    0 -0.71976075900E-02 -0.22426099188E-01  0.17101748216E-02  0.10203151704E+01  0.10200418554E+01 0.  0.
     999903    2    3    3    0    0  0.46586649273E-01  0.11677052818E+00 -0.10518137371E-01  0.12766855555E+00  0.19569280056E-01 0.  0.
         14    1    1    2    0    0  0.71976075900E-02  0.22426099188E-01 -0.17101748216E-02  0.23614829614E-01  0.00000000000E+00 0. -1.
     999901    1    3    3    0    0 -0.53784256863E-01 -0.13919662736E+00  0.12228312192E-01  0.89264661483E+00  0.88000000000E+00 0.  1.
        -11    1    4    4    0    0  0.38511551460E-01  0.97988616619E-01 -0.16002490372E-01  0.10649530225E+00  0.51100000000E-03 0. -1.
         11    1    4    4    0    0  0.80750978132E-02  0.18781911556E-01  0.54843530010E-02  0.21173253299E-01  0.51100000000E-03 0.  1.
</event>
<event>
 8    1  0.1093753E+005  0.1043930E+01  0.7957747E-01            NaN
         13   -1    0    0    0    0  0.00000000000E+00  0.00000000000E+00  0.74505805969E-08  0.10566000000E+00  0.10566000000E+00 0.  1.
     999900   -1    0    0    0    0 -0.00000000000E+00 -0.00000000000E+00 -0.74505805969E-08  0.93827000000E+00  0.93827000000E+00 0. -1.
     999902    2    1    2    0    0  0.88849701640E-02  0.19759135936E-01 -0.87465542589E-02  0.10205661741E+01  0.10202987050E+01 0.  0.
     999903    2    3    3    0    0  0.14949243027E-02 -0.11111054965E+00  0.60564095675E-01  0.12816186353E+00  0.20240171380E-01 0.  0.
         14    1    1    2    0    0 -0.88849701640E-02 -0.19759135936E-01  0.87465542589E-02  0.23363825867E-01  0.00000000000E+00 0.  1.
     999901    1    3    3    0    0  0.73900458613E-02  0.13086968558E+00 -0.69310649934E-01  0.89240431060E+00  0.88000000000E+00 0. -1.
        -11    1    4    4    0    0 -0.37943939922E-02 -0.10397254029E+00  0.55402910804E-01  0.11787463767E+00  0.51100000000E-03 0.  1.
         11    1    4    4    0    0  0.52893182949E-02 -0.71380093618E-02  0.51611848707E-02  0.10287225862E-01  0.51100000000E-03 0. -1.
</event>
<event>
 7    1  0.1093753E+005  0.1043930E+01  0.7957747E-01            NaN
         13   -1    0    0    0    0  0.00000000000E+00  0.00000000000E+00  0.74505805969E-08  0.10566000000E+00  0.10566000000E+00 0. -1.
     999900   -1    0    0    0    0 -0.00000000000E+00 -0.00000000000E+00 -0.74505805969E-08  0.93827000000E+00  0.93827000000E+00 0.  1.
     999902    2    1    2    0    0 -0.64620041877E-02  0.22653590578E-01 -0.23691893434E-02  0.10202539420E+01  0.10199791912E+01 0.  0.
         14    1    1    2    0    0  0.64620041877E-02 -0.22653590578E-01  0.23691893434E-02  0.23676057998E-01  0.00000000000E+00 0.  1.
     999901    1    3    3    0    0  0.11620427757E+00  0.24067353221E-01  0.30157511066E-01  0.88847743195E+00  0.88000000000E+00 0. -1.
        -11    1    3    3    0    0 -0.90614998723E-01 -0.13530317698E-01 -0.13589636809E-01  0.92623360121E-01  0.51100000000E-03 0. -1.
         11    1    3    3    0    0 -0.32051283033E-01  0.12116555055E-01 -0.18937063600E-01  0.39153149927E-01  0.51100000000E-03 0.  1.
</event>
<event>
 8    1  0.1093753E+005  0.1043930E+01  0.7957747E-01            NaN
         13   -1    0    0    0    0  0.00000000000E+00  0.00000000000E+00  0.74505805969E-08  0.10566000000E+00  0.10566000000E+00 0. -1.
     999900   -1    0    0    0    0 -0.00000000000E+00 -0.00000000000E+00 -0.74505805969E-08  0.93827000000E+00  0.93827000000E+00 0. -1.
     999902    2    1    2    0    0  0.15824262783E-02  0.19067900333E-01 -0.13442547628E-01  0.10205464378E+01  0.10202785113E+01 0.  0.
     999903    2    3    3    0    0 -0.10091991512E+00 -0.48047522691E-01 -0.64483866069E-01  0.13059339058E+00  0.20076627635E-01 0.  0.
         14    1    1    2    0    0 -0.15824262783E-02 -0.19067900333E-01  0.13442547628E-01  0.23383562234E-01  0.00000000000E+00 0. -1.
     999901    1    3    3    0    0  0.10250234140E+00  0.67115423024E-01  0.51041318441E-01  0.88995304718E+00  0.88000000000E+00 0. -1.
        -11    1    4    4    0    0 -0.34979778991E-01 -0.24357400716E-01 -0.32322364350E-01  0.53496394889E-01  0.51100000000E-03 0.  1.
         11    1    4    4    0    0 -0.65940136127E-01 -0.23690121976E-01 -0.32161501718E-01  0.77096995696E-01  0.51100000000E-03 0. -1.
</event>
<event>
 8    1  0.1093753E+005  0.1043930E+01  0.7957747E-01            NaN
         13   -1    0    0    0    0  0.00000000000E+00  0.00000000000E+00  0.74505805969E-08  0.10566000000E+00  0.10566000000E+00 0. -1.
     999900   -1    0    0    0    0 -0.00000000000E+00 -0.00000000000E+00 -0.74505805969E-08  0.93827000000E+00  0.93827000000E+00 0. -1.
     999902    2    1    2    0    0  0.28473752238E-02  0.11887563440E-01  0.20800069649E-01  0.10198039848E+01  0.10195185643E+01 0.  0.
     999903    2    3    3    0    0 -0.30736152473E-01 -0.12345956280E+00  0.43161637469E-02  0.12867076412E+00  0.18723289085E-01 0.  0.
         14    1    1    2    0    0 -0.28473752238E-02 -0.11887563440E-01 -0.20800069649E-01  0.24126015162E-01  0.00000000000E+00 0.  1.
     999901    1    3    3    0    0  0.33583527696E-01  0.13534712624E+00  0.16483905902E-01  0.89113322072E+00  0.88000000000E+00 0.  1.
        -11    1    4    4    0    0 -0.20426690504E-01 -0.61969605563E-01  0.10198611376E-01  0.66043580260E-01  0.51100000000E-03 0. -1.
         11    1    4    4    0    0 -0.10309461968E-01 -0.61489957237E-01 -0.58824476295E-02  0.62627183859E-01  0.51100000000E-03 0.  1.
</event>
<event>
 8    1  0.1093753E+005  0.1043930E+01  0.7957747E-01            NaN
         13   -1    0    0    0    0  0.00000000000E+00  0.00000000000E+00  0.74505805969E-08  0.10566000000E+00  0.10566000000E+00 0.  1.
     999900   -1    0    0    0    0 -0.00000000000E+00 -0.00000000000E+00 -0.74505805969E-08  0.93827000000E+00  0.93827000000E+00 0.  1.
     999902    2    1    2    0    0 -0.70434799361E-02 -0.95092378299E-02  0.22202639736E-01  0.10187706394E+01  0.10184599267E+01 0.  0.
     999903    2    3    3    0    0  0.78883054913E-02 -0.11273043754E+00 -0.58004501291E-01  0.12898934058E+00  0.22435483083E-01 0.  0.
         14    1    1    2    0    0  0.70434799361E-02  0.95092378299E-02 -0.22202639736E-01  0.25159360583E-01  0.00000000000E+00 0. -1.
     999901    1    3    3    0    0 -0.14931785427E-01  0.10322119971E+00  0.80207141026E-01  0.88978129884E+00  0.88000000000E+00 0.  1.
        -11    1    4    4    0    0 -0.79156793237E-02 -0.40635781834E-01 -0.21049308318E-01  0.46446304978E-01  0.51100000000E-03 0.  1.
         11    1    4    4    0    0  0.15803984815E-01 -0.72094655710E-01 -0.36955192973E-01  0.82543035603E-01  0.51100000000E-03 0. -1.
</event>
<event>
 8    1  0.1093753E+005  0.1043930E+01  0.7957747E-01            NaN
         13   -1    0    0    0    0  0.00000000000E+00  0.00000000000E+00  0.74505805969E-08  0.10566000000E+00  0.10566000000E+00 0.  1.
     999900   -1    0    0    0    0 -0.00000000000E+00 -0.00000000000E+00 -0.74505805969E-08  0.93827000000E+00  0.93827000000E+00 0. -1.
     999902    2    1    2    0    0 -0.85915428595E-02 -0.17809093379E-02 -0.22026228901E-01  0.10202204870E+01  0.10199449500E+01 0.  0.
     999903    2    3    3    0    0  0.12182489559E+00 -0.50655011196E-02 -0.41853963250E-01  0.13038208875E+00  0.19513337490E-01 0.  0.
         14    1    1    2    0    0  0.85915428595E-02  0.17809093379E-02  0.22026228901E-01  0.23709512993E-01  0.00000000000E+00 0.  1.
     999901    1    3    3    0    0 -0.13041643845E+00  0.32845917817E-02  0.19827734349E-01  0.88983839826E+00  0.88000000000E+00 0. -1.
        -11    1    4    4    0    0  0.10091545496E+00  0.25610133179E-02 -0.30914198310E-01  0.10557668595E+00  0.51100000000E-03 0. -1.
         11    1    4    4    0    0  0.20909440633E-01 -0.76265144375E-02 -0.10939764939E-01  0.24805402798E-01  0.51100000000E-03 0.  1.
</event>
<event>
 8    1  0.1093753E+005  0.1043930E+01  0.7957747E-01            NaN
         13   -1    0    0    0    0  0.00000000000E+00  0.00000000000E+00  0.74505805969E-08  0.10566000000E+00  0.10566000000E+00 0. -1.
     999900   -1    0    0    0    0 -0.00000000000E+00 -0.00000000000E+00 -0.74505805969E-08  0.93827000000E+00  0.93827000000E+00 0.  1.
     999902    2    1    2    0    0 -0.69490191555E-02 -0.12318372140E-01  0.18425120887E-01  0.10207025111E+01  0.10204381902E+01 0.  0.
     999903    2    3    3    0    0 -0.11485449487E-01 -0.68039002851E-02 -0.12561675812E+00  0.12896317057E+00  0.25956132871E-01 0.  0.
         14    1    1    2    0    0  0.69490191555E-02  0.12318372140E-01 -0.18425120887E-01  0.23227488868E-01  0.00000000000E+00 0.  1.
     999901    1    3    3    0    0  0.45364303312E-02 -0.55144718546E-02  0.14404187901E+00  0.89173934056E+00  0.88000000000E+00 0. -1.
        -11    1    4    4    0    0 -0.16151915907E-01  0.40564783763E-02 -0.59159729883E-01  0.61461159809E-01  0.51100000000E-03 0. -1.
         11    1    4    4    0    0  0.46664664199E-02 -0.10860378661E-01 -0.66457028237E-01  0.67502010760E-01  0.51100000000E-03 0.  1.
</event>
<event>
 8    1  0.1093753E+005  0.1043930E+01  0.7957747E-01            NaN
         13   -1    0    0    0    0  0.00000000000E+00  0.00000000000E+00  0.74505805969E-08  0.10566000000E+00  0.10566000000E+00 0.  1.
     999900   -1    0    0    0    0 -0.00000000000E+00 -0.00000000000E+00 -0.74505805969E-08  0.93827000000E+00  0.93827000000E+00 0. -1.
     999902    2    1    2    0    0 -0.23714014304E-03  0.11422695492E-01 -0.20769417206E-01  0.10202255089E+01  0.10199500900E+01 0.  0.
     999903    2    3    3    0    0 -0.12218296486E+00  0.11699610396E-01  0.37623680926E-01  0.12989938058E+00  0.19817919202E-01 0.  0.
         14    1    1    2    0    0  0.23714014304E-03 -0.11422695492E-01  0.20769417206E-01  0.23704491111E-01  0.00000000000E+00 0.  1.
     999901    1    3    3    0    0  0.12194582472E+00 -0.27691490422E-03 -0.58393098132E-01  0.89032612831E+00  0.88000000000E+00 0.  1.
        -11    1    4    4    0    0 -0.10460760043E+00  0.16198780305E-01  0.35381492812E-01  0.11161210376E+00  0.51100000000E-03 0. -1.
         11    1    4    4    0    0 -0.17575364428E-01 -0.44991699087E-02  0.22421881138E-02  0.18287276812E-01  0.51100000000E-03 0.  1.
</event>
<event>
 8    1  0.1093753E+005  0.1043930E+01  0.7957747E-01            NaN
         13   -1    0    0    0    0  0.00000000000E+00  0.00000000000E+00  0.74505805969E-08  0.10566000000E+00  0.10566000000E+00 0.  1.
     999900   -1    0    0    0    0 -0.00000000000E+00 -0.00000000000E+00 -0.74505805969E-08  0.93827000000E+00  0.93827000000E+00 0.  1.
     999902    2    1    2    0    0 -0.13323545776E-01 -0.18440186335E-01  0.41795826179E-02  0.10207993654E+01  0.10205372694E+01 0.  0.
     999903    2    3    3    0    0 -0.12759035445E+00 -0.27371914459E-01 -0.16504350967E-01  0.13312571796E+00  0.20531510660E-01 0.  0.
         14    1    1    2    0    0  0.13323545776E-01  0.18440186335E-01 -0.41795826179E-02  0.23130634556E-01  0.00000000000E+00 0.  1.
     999901    1    3    3    0    0  0.11426680868E+00  0.89317281243E-02  0.20683933585E-01  0.88767364749E+00  0.88000000000E+00 0. -1.
        -11    1    4    4    0    0 -0.77471391826E-01 -0.10439106743E-01 -0.17115610538E-02  0.78191956513E-01  0.51100000000E-03 0.  1.
         11    1    4    4    0    0 -0.50118962628E-01 -0.16932807716E-01 -0.14792789913E-01  0.54933761445E-01  0.51100000000E-03 0. -1.
</event>
<event>
 8    1  0.1093753E+005  0.1043930E+01  0.7957747E-01            NaN
         13   -1    0    0    0    0  0.00000000000E+00  0.00000000000E+00  0.74505805969E-08  0.10566000000E+00  0.10566000000E+00 0. -1.
     999900   -1    0    0    0    0 -0.00000000000E+00 -0.00000000000E+00 -0.74505805969E-08  0.93827000000E+00  0.93827000000E+00 0. -1.
     999902    2    1    2    0    0  0.45546172834E-02  0.19987930385E-01  0.12416896875E-01  0.10199624964E+01  0.10196808583E+01 0.  0.
     999903    2    3    3    0    0 -0.93778269331E-01 -0.41019383542E-01 -0.74391880721E-01  0.12815141059E+00  0.20289861874E-01 0.  0.
         14    1    1    2    0    0 -0.45546172834E-02 -0.19987930385E-01 -0.12416896875E-01  0.23967503577E-01  0.00000000000E+00 0.  1.
     999901    1    3    3    0    0  0.98332886614E-01  0.61007313928E-01  0.86808777596E-01  0.89181108583E+00  0.88000000000E+00 0. -1.
        -11    1    4    4    0    0 -0.45282998342E-01 -0.27205712339E-01 -0.47287368218E-01  0.70901742127E-01  0.51100000000E-03 0. -1.
         11    1    4    4    0    0 -0.48495270989E-01 -0.13813671204E-01 -0.27104512503E-01  0.57249668465E-01  0.51100000000E-03 0.  1.
</event>
<event>
 7    1  0.1093753E+005  0.1043930E+01  0.7957747E-01            NaN
         13   -1    0    0    0    0  0.00000000000E+00  0.00000000000E+00  0.74505805969E-08  0.10566000000E+00  0.10566000000E+00 0. -1.
     999900   -1    0    0    0    0 -0.00000000000E+00 -0.00000000000E+00 -0.74505805969E-08  0.93827000000E+00  0.93827000000E+00 0.  1.
     999902    2    1    2    0    0 -0.41252651737E-02 -0.20378609623E-01  0.11051932468E-01  0.10203832220E+01  0.10201114983E+01 0.  0.
         14    1    1    2    0    0  0.41252651737E-02  0.20378609623E-01 -0.11051932468E-01  0.23546778000E-01  0.00000000000E+00 0.  1.
     999901    1    3    3    0    0  0.57675529750E-01  0.86607356929E-01 -0.23440237765E-01  0.88644049194E+00  0.88000000000E+00 0. -1.
        -11    1    3    3    0    0 -0.26478788883E-01 -0.78375172841E-01  0.31014518897E-01  0.88351318507E-01  0.51100000000E-03 0. -1.
         11    1    3    3    0    0 -0.35322006040E-01 -0.28610793711E-01  0.34776513358E-02  0.45591411552E-01  0.51100000000E-03 0.  1.
</event>
<event>
 8    1  0.1093753E+005  0.1043930E+01  0.7957747E-01            NaN
         13   -1    0    0    0    0  0.00000000000E+00  0.00000000000E+00  0.74505805969E-08  0.10566000000E+00  0.10566000000E+00 0.  1.
     999900   -1    0    0    0    0 -0.00000000000E+00 -0.00000000000E+00 -0.74505805969E-08  0.93827000000E+00  0.93827000000E+00 0.  1.
     999902    2    1    2    0    0 -0.63888598869E-02 -0.23236360550E-01  0.15327955208E-01  0.10153696745E+01  0.10149679225E+01 0.  0.
     999903    2    3    3    0    0 -0.14072299997E-01 -0.10399915737E+00 -0.69899687793E-01  0.12753781218E+00  0.19133029577E-01 0.  0.
         14    1    1    2    0    0  0.63888598869E-02  0.23236360550E-01 -0.15327955208E-01  0.28560325508E-01  0.00000000000E+00 0.  1.
     999901    1    3    3    0    0  0.76834401100E-02  0.80762796823E-01  0.85227643001E-01  0.88783186231E+00  0.88000000000E+00 0. -1.
        -11    1    4    4    0    0 -0.77482142669E-02 -0.43865774931E-01 -0.18729063443E-01  0.48324734589E-01  0.51100000000E-03 0. -1.
         11    1    4    4    0    0 -0.63240857300E-02 -0.60133382442E-01 -0.51170624350E-01  0.79213077592E-01  0.51100000000E-03 0.  1.
</event>
<event>
 8    1  0.1093753E+005  0.1043930E+01  0.7957747E-01            NaN
         13   -1    0    0    0    0  0.00000000000E+00  0.00000000000E+00  0.74505805969E-08  0.10566000000E+00  0.10566000000E+00 0.  1.
     999900   -1    0    0    0    0 -0.00000000000E+00 -0.00000000000E+00 -0.74505805969E-08  0.93827000000E+00  0.93827000000E+00 0.  1.
     999902    2    1    2    0    0  0.74607645724E-02  0.18186202352E-02  0.21691380931E-01  0.10209194286E+01  0.10206600773E+01 0.  0.
     999903    2    3    3    0    0  0.21282767474E-01  0.12114977673E+00  0.43642404401E-01  0.13248663990E+00  0.22755783830E-01 0.  0.
         14    1    1    2    0    0 -0.74607645724E-02 -0.18186202352E-02 -0.21691380931E-01  0.23010571359E-01  0.00000000000E+00 0. -1.
     999901    1    3    3    0    0 -0.13822002902E-01 -0.11933115649E+00 -0.21951023469E-01  0.88843278874E+00  0.88000000000E+00 0. -1.
        -11    1    4    4    0    0  0.13388985834E-01  0.49223294913E-01  0.73690924709E-02  0.51543790592E-01  0.51100000000E-03 0. -1.
         11    1    4    4    0    0  0.78937816399E-02  0.71926481816E-01  0.36273311930E-01  0.80942849310E-01  0.51100000000E-03 0.  1.
</event>
<event>
 8    1  0.1093753E+005  0.1043930E+01  0.7957747E-01            NaN
         13   -1    0    0    0    0  0.00000000000E+00  0.00000000000E+00  0.74505805969E-08  0.10566000000E+00  0.10566000000E+00 0. -1.
     999900   -1    0    0    0    0 -0.00000000000E+00 -0.00000000000E+00 -0.74505805969E-08  0.93827000000E+00  0.93827000000E+00 0.  1.
     999902    2    1    2    0    0  0.19578174929E-01 -0.11414511656E-01 -0.45731438298E-02  0.10208105352E+01  0.10205486951E+01 0.  0.
     999903    2    3    3    0    0 -0.34485510763E-01  0.12210930268E+00  0.76455929245E-02  0.12901415222E+00  0.22051397385E-01 0.  0.
         14    1    1    2    0    0 -0.19578174929E-01  0.11414511656E-01  0.45731438298E-02  0.23119464838E-01  0.00000000000E+00 0. -1.
     999901    1    3    3    0    0  0.54063685692E-01 -0.13352381434E+00 -0.12218736754E-01  0.89179638295E+00  0.88000000000E+00 0.  1.
        -11    1    4    4    0    0 -0.31119146054E-01  0.70660348858E-01  0.55440139325E-02  0.77409840223E-01  0.51100000000E-03 0. -1.
         11    1    4    4    0    0 -0.33663647085E-02  0.51448953825E-01  0.21015789919E-02  0.51604311994E-01  0.51100000000E-03 0.  1.
</event>
<event>
 8    1  0.1093753E+005  0.1043930E+01  0.7957747E-01            NaN
         13   -1    0    0    0    0  0.00000000000E+00  0.00000000000E+00  0.74505805969E-08  0.10566000000E+00  0.10566000000E+00 0. -1.
     999900   -1    0    0    0    0 -0.00000000000E+00 -0.00000000000E+00 -0.74505805969E-08  0.93827000000E+00  0.93827000000E+00 0. -1.
     999902    2    1    2    0    0  0.13091597269E-01 -0.73766773925E-02  0.19174869831E-01  0.10195685361E+01  0.10192774495E+01 0.  0.
     999903    2    3    3    0    0  0.46895572165E-01  0.17618745445E-01 -0.11636208778E+00  0.12820006757E+00  0.19634331504E-01 0.  0.
         14    1    1    2    0    0 -0.13091597269E-01  0.73766773925E-02 -0.19174869831E-01  0.24361463860E-01  0.00000000000E+00 0.  1.
     999901    1    3    3    0    0 -0.33803974896E-01 -0.24995422837E-01  0.13553695761E+00  0.89136846857E+00  0.88000000000E+00 0.  1.
        -11    1    4    4    0    0  0.28298771011E-01  0.33496420606E-03 -0.57280453976E-01  0.63892442201E-01  0.51100000000E-03 0.  1.
         11    1    4    4    0    0  0.18596801154E-01  0.17283781239E-01 -0.59081633801E-01  0.64307625370E-01  0.51100000000E-03 0. -1.
</event>
<event>
 8    1  0.1093753E+005  0.1043930E+01  0.7957747E-01            NaN
         13   -1    0    0    0    0  0.00000000000E+00  0.00000000000E+00  0.74505805969E-08  0.10566000000E+00  0.10566000000E+00 0. -1.
     999900   -1    0    0    0    0 -0.00000000000E+00 -0.00000000000E+00 -0.74505805969E-08  0.93827000000E+00  0.93827000000E+00 0. -1.
     999902    2    1    2    0    0  0.92824754094E-02  0.15869204337E-01  0.15756892579E-01  0.10197168701E+01  0.10194293597E+01 0.  0.
     999903    2    3    3    0    0  0.78694744533E-03  0.27256489924E-01 -0.12313480205E+00  0.12871027803E+00  0.25702541990E-01 0.  0.
         14    1    1    2    0    0 -0.92824754094E-02 -0.15869204337E-01 -0.15756892579E-01  0.24213129904E-01  0.00000000000E+00 0.  1.
     999901    1    3    3    0    0  0.84955279641E-02 -0.11387285588E-01  0.13889169463E+00  0.89100659207E+00  0.88000000000E+00 0.  1.
        -11    1    4    4    0    0  0.10958287813E-01  0.23336682070E-01 -0.97437837747E-01  0.10079225242E+00  0.51100000000E-03 0.  1.
         11    1    4    4    0    0 -0.10171340368E-01  0.39198078538E-02 -0.25696964305E-01  0.27918025611E-01  0.51100000000E-03 0. -1.
</event>
<event>
 8    1  0.1093753E+005  0.1043930E+01  0.7957747E-01            NaN
         13   -1    0    0    0    0  0.00000000000E+00  0.00000000000E+00  0.74505805969E-08  0.10566000000E+00  0.10566000000E+00 0. -1.
     999900   -1    0    0    0    0 -0.00000000000E+00 -0.00000000000E+00 -0.74505805969E-08  0.93827000000E+00  0.93827000000E+00 0.  1.
     999902    2    1    2    0    0  0.77349924119E-02 -0.54537881948E-02  0.21068100565E-01  0.10208337065E+01  0.10205723970E+01 0.  0.
     999903    2    3    3    0    0 -0.25180518377E-01  0.28661874438E-01  0.12628465380E+00  0.13329901286E+00  0.19111553906E-01 0.  0.
         14    1    1    2    0    0 -0.77349924119E-02  0.54537881948E-02 -0.21068100565E-01  0.23096293527E-01  0.00000000000E+00 0.  1.
     999901    1    3    3    0    0  0.32915510789E-01 -0.34115662632E-01 -0.10521655324E+00  0.88753469361E+00  0.88000000000E+00 0.  1.
        -11    1    4    4    0    0 -0.22231182464E-01  0.11120578766E-01  0.71948491443E-01  0.76123184956E-01  0.51100000000E-03 0.  1.
         11    1    4    4    0    0 -0.29493359132E-02  0.17541295671E-01  0.54336162357E-01  0.57175827907E-01  0.51100000000E-03 0. -1.
</event>
<event>
 8    1  0.1093753E+005  0.1043930E+01  0.7957747E-01            NaN
         13   -1    0    0    0    0  0.00000000000E+00  0.00000000000E+00  0.74505805969E-08  0.10566000000E+00  0.10566000000E+00 0.  1.
     999900   -1    0    0    0    0 -0.00000000000E+00 -0.00000000000E+00 -0.74505805969E-08  0.93827000000E+00  0.93827000000E+00 0. -1.
     999902    2    1    2    0    0  0.97486555907E-02  0.14228053050E-01 -0.15781402554E-01  0.10205520949E+01  0.10202842996E+01 0.  0.
     999903    2    3    3    0    0 -0.33397165043E-01 -0.86571294518E-01  0.85614386720E-01  0.12796978701E+00  0.20892187693E-01 0.  0.
         14    1    1    2    0    0 -0.97486555907E-02 -0.14228053050E-01  0.15781402554E-01  0.23377905081E-01  0.00000000000E+00 0.  1.
     999901    1    3    3    0    0  0.43145820634E-01  0.10079934757E+00 -0.10139578927E+00  0.89258230791E+00  0.88000000000E+00 0. -1.
        -11    1    4    4    0    0 -0.14235068377E-01 -0.28690736758E-01  0.17308232755E-01  0.36409223962E-01  0.51100000000E-03 0. -1.
         11    1    4    4    0    0 -0.19162096666E-01 -0.57880557761E-01  0.68306153965E-01  0.91560563049E-01  0.51100000000E-03 0.  1.
</event>
<event>
 8    1  0.1093753E+005  0.1043930E+01  0.7957747E-01            NaN
         13   -1    0    0    0    0  0.00000000000E+00  0.00000000000E+00  0.74505805969E-08  0.10566000000E+00  0.10566000000E+00 0.  1.
     999900   -1    0    0    0    0 -0.00000000000E+00 -0.00000000000E+00 -0.74505805969E-08  0.93827000000E+00  0.93827000000E+00 0. -1.
     999902    2    1    2    0    0  0.17138214720E-01 -0.11451967052E-01  0.12656014424E-01  0.10197423863E+01  0.10194554889E+01 0.  0.
     999903    2    3    3    0    0 -0.40113607794E-01  0.10653189218E+00  0.57124182605E-01  0.12891390667E+00  0.19936838094E-01 0.  0.
         14    1    1    2    0    0 -0.17138214720E-01  0.11451967052E-01 -0.12656014424E-01  0.24187613654E-01  0.00000000000E+00 0.  1.
     999901    1    3    3    0    0  0.57251822514E-01 -0.11798385923E+00 -0.44468168181E-01  0.89082847968E+00  0.88000000000E+00 0. -1.
        -11    1    4    4    0    0 -0.28647323220E-02  0.33081952418E-01  0.16339675164E-01  0.37011732903E-01  0.51100000000E-03 0.  1.
         11    1    4    4    0    0 -0.37248875472E-01  0.73449939761E-01  0.40784507441E-01  0.91902173767E-01  0.51100000000E-03 0. -1.
</event>
<event>
 8    1  0.1093753E+005  0.1043930E+01  0.7957747E-01            NaN
         13   -1    0    0    0    0  0.00000000000E+00  0.00000000000E+00  0.74505805969E-08  0.10566000000E+00  0.10566000000E+00 0. -1.
     999900   -1    0    0    0    0 -0.00000000000E+00 -0.00000000000E+00 -0.74505805969E-08  0.93827000000E+00  0.93827000000E+00 0. -1.
     999902    2    1    2    0    0  0.22658975462E-01  0.53684236248E-02 -0.82152899389E-02  0.10192370834E+01  0.10189379236E+01 0.  0.
     999903    2    3    3    0    0 -0.12107169520E+00  0.21651262431E-01  0.23688779876E-01  0.12685739616E+00  0.20112387390E-01 0.  0.
         14    1    1    2    0    0 -0.22658975462E-01 -0.53684236248E-02  0.82152899389E-02  0.24692916595E-01  0.00000000000E+00 0. -1.
     999901    1    3    3    0    0  0.14373067066E+00 -0.16282838806E-01 -0.31904069815E-01  0.89237968724E+00  0.88000000000E+00 0.  1.
        -11    1    4    4    0    0 -0.75098882928E-01  0.98315111678E-02  0.23779659029E-01  0.79386611802E-01  0.51100000000E-03 0. -1.
         11    1    4    4    0    0 -0.45972812271E-01  0.11819751263E-01 -0.90879152451E-04  0.47470784363E-01  0.51100000000E-03 0.  1.
</event>
<event>
 8    1  0.1093753E+005  0.1043930E+01  0.7957747E-01            NaN
         13   -1    0    0    0    0  0.00000000000E+00  0.00000000000E+00  0.74505805969E-08  0.10566000000E+00  0.10566000000E+00 0.  1.
     999900   -1    0    0    0    0 -0.00000000000E+00 -0.00000000000E+00 -0.74505805969E-08  0.93827000000E+00  0.93827000000E+00 0. -1.
     999902    2    1    2    0    0  0.23172134300E-01  0.54458867096E-02 -0.20284331634E-02  0.10200402526E+01  0.10197604605E+01 0.  0.
     999903    2    3    3    0    0 -0.10781506257E+00  0.41720433801E-01  0.51501726467E-01  0.12799823200E+00  0.19142550877E-01 0.  0.
         14    1    1    2    0    0 -0.23172134300E-01 -0.54458867096E-02  0.20284331634E-02  0.23889747407E-01  0.00000000000E+00 0. -1.
     999901    1    3    3    0    0  0.13098719687E+00 -0.36274547091E-01 -0.53530159630E-01  0.89204202059E+00  0.88000000000E+00 0. -1.
        -11    1    4    4    0    0 -0.40214634024E-01  0.12565230333E-01  0.28495004275E-01  0.50865786071E-01  0.51100000000E-03 0. -1.
         11    1    4    4    0    0 -0.67600428542E-01  0.29155203468E-01  0.23006722191E-01  0.77132445931E-01  0.51100000000E-03 0.  1.
</event>
<event>
 8    1  0.1093753E+005  0.1043930E+01  0.7957747E-01            NaN
         13   -1    0    0    0    0  0.00000000000E+00  0.00000000000E+00  0.74505805969E-08  0.10566000000E+00  0.10566000000E+00 0. -1.
     999900   -1    0    0    0    0 -0.00000000000E+00 -0.00000000000E+00 -0.74505805969E-08  0.93827000000E+00  0.93827000000E+00 0. -1.
     999902    2    1    2    0    0  0.41051021891E-04  0.22071625130E-01 -0.84936007639E-02  0.10202804847E+01  0.10200063568E+01 0.  0.
     999903    2    3    3    0    0  0.62681397246E-01  0.11483827591E+00  0.12899178731E-01  0.13293212271E+00  0.19691959328E-01 0.  0.
         14    1    1    2    0    0 -0.41051021891E-04 -0.22071625130E-01  0.84936007639E-02  0.23649515323E-01  0.00000000000E+00 0.  1.
     999901    1    3    3    0    0 -0.62640346224E-01 -0.92766650777E-01 -0.21392779495E-01  0.88734836197E+00  0.88000000000E+00 0. -1.
        -11    1    4    4    0    0  0.58513666758E-01  0.10995294766E+00  0.79483932822E-02  0.12480760383E+00  0.51100000000E-03 0. -1.
         11    1    4    4    0    0  0.41677304881E-02  0.48853282496E-02  0.49507854493E-02  0.81245188838E-02  0.51100000000E-03 0.  1.
</event>
<event>
 8    1  0.1093753E+005  0.1043930E+01  0.7957747E-01            NaN
         13   -1    0    0    0    0  0.00000000000E+00  0.00000000000E+00  0.74505805969E-08  0.10566000000E+00  0.10566000000E+00 0.  1.
     999900   -1    0    0    0    0 -0.00000000000E+00 -0.00000000000E+00 -0.74505805969E-08  0.93827000000E+00  0.93827000000E+00 0. -1.
     999902    2    1    2    0    0 -0.18113319009E-01 -0.14619222089E-01  0.27689546210E-02  0.10204889870E+01  0.10202197271E+01 0.  0.
     999903    2    3    3    0    0  0.68596297608E-01  0.26860126023E-01  0.10450976471E+00  0.12942766120E+00  0.20057670534E-01 0.  0.
         14    1    1    2    0    0  0.18113319009E-01  0.14619222089E-01 -0.27689546210E-02  0.23441012984E-01  0.00000000000E+00 0. -1.
     999901    1    3    3    0    0 -0.86709616617E-01 -0.41479348112E-01 -0.10174081009E+00  0.89106132582E+00  0.88000000000E+00 0. -1.
        -11    1    4    4    0    0  0.49283267220E-01  0.15326331291E-01  0.85965423758E-01  0.10026989609E+00  0.51100000000E-03 0.  1.
         11    1    4    4    0    0  0.19313030388E-01  0.11533794732E-01  0.18544340954E-01  0.29157765108E-01  0.51100000000E-03 0. -1.
</event>
<event>
 8    1  0.1093753E+005  0.1043930E+01  0.7957747E-01            NaN
         13   -1    0    0    0    0  0.00000000000E+00  0.00000000000E+00  0.74505805969E-08  0.10566000000E+00  0.10566000000E+00 0. -1.
     999900   -1    0    0    0    0 -0.00000000000E+00 -0.00000000000E+00 -0.74505805969E-08  0.93827000000E+00  0.93827000000E+00 0.  1.
     999902    2    1    2    0    0 -0.18752528704E-01  0.41570464123E-04  0.57762714198E-02  0.10243079621E+01  0.10241200012E+01 0.  0.
     999903    2    3    3    0    0 -0.85251883404E-01 -0.92333379301E-01  0.47838729705E-01  0.13598113825E+00  0.20223484959E-01 0.  0.
         14    1    1    2    0    0  0.18752528704E-01 -0.41570464123E-04 -0.57762714198E-02  0.19622037927E-01  0.00000000000E+00 0.  1.
     999901    1    3    3    0    0  0.66499354700E-01  0.92374949765E-01 -0.42062458286E-01  0.88832682382E+00  0.88000000000E+00 0. -1.
        -11    1    4    4    0    0 -0.81667648928E-02 -0.44440840956E-02 -0.83212474620E-03  0.93487691626E-02  0.51100000000E-03 0.  1.
         11    1    4    4    0    0 -0.77085118511E-01 -0.87889295205E-01  0.48670854452E-01  0.12663236909E+00  0.51100000000E-03 0. -1.
</event>
<event>
 8    1  0.1093753E+005  0.1043930E+01  0.7957747E-01            NaN
         13   -1    0    0    0    0  0.00000000000E+00  0.00000000000E+00  0.74505805969E-08  0.10566000000E+00  0.10566000000E+00 0.  1.
     999900   -1    0    0    0    0 -0.00000000000E+00 -0.00000000000E+00 -0.74505805969E-08  0.93827000000E+00  0.93827000000E+00 0.  1.
     999902    2    1    2    0    0 -0.15941914324E-01  0.83149735660E-02  0.15038863828E-01  0.10204896322E+01  0.10202203873E+01 0.  0.
     999903    2    3    3    0    0 -0.13884375655E-02 -0.10888855153E+00  0.69769948443E-01  0.13091447426E+00  0.20300479117E-01 0.  0.
         14    1    1    2    0    0  0.15941914324E-01 -0.83149735660E-02 -0.15038863828E-01  0.23440367807E-01  0.00000000000E+00 0. -1.
     999901    1    3    3    0    0 -0.14553476758E-01  0.11720352510E+00 -0.54731084616E-01  0.88957515793E+00  0.88000000000E+00 0.  1.
        -11    1    4    4    0    0 -0.64228543604E-02 -0.88652629002E-01  0.63130953712E-01  0.10902440151E+00  0.51100000000E-03 0. -1.
         11    1    4    4    0    0  0.50344167949E-02 -0.20235922530E-01  0.66389947311E-02  0.21890072753E-01  0.51100000000E-03 0.  1.
</event>
<event>
 8    1  0.1093753E+005  0.1043930E+01  0.7957747E-01            NaN
         13   -1    0    0    0    0  0.00000000000E+00  0.00000000000E+00  0.74505805969E-08  0.10566000000E+00  0.10566000000E+00 0. -1.
     999900   -1    0    0    0    0 -0.00000000000E+00 -0.00000000000E+00 -0.74505805969E-08  0.93827000000E+00  0.93827000000E+00 0.  1.
     999902    2    1    2    0    0  0.15524726582E-01  0.70093040508E-02  0.13135990382E-01  0.10224194974E+01  0.10221931945E+01 0.  0.
     999903    2    3    3    0    0 -0.56328600809E-01 -0.40260602228E-01 -0.10837346114E+00  0.12991633690E+00  0.18428785954E-01 0.  0.
         14    1    1    2    0    0 -0.15524726582E-01 -0.70093040508E-02 -0.13135990382E-01  0.21510502598E-01  0.00000000000E+00 0.  1.
     999901    1    3    3    0    0  0.71853327392E-01  0.47269906279E-01  0.12150945153E+00  0.89250316050E+00  0.88000000000E+00 0. -1.
        -11    1    4    4    0    0 -0.13901945834E-01 -0.18063789092E-01 -0.25525792053E-01  0.34225600875E-01  0.51100000000E-03 0. -1.
         11    1    4    4    0    0 -0.42426654975E-01 -0.22196813137E-01 -0.82847669092E-01  0.95690736024E-01  0.51100000000E-03 0.  1.
</event>
<event>
 8    1  0.1093753E+005  0.1043930E+01  0.7957747E-01            NaN
         13   -1    0    0    0    0  0.00000000000E+00  0.00000000000E+00  0.74505805969E-08  0.10566000000E+00  0.10566000000E+00 0.  1.
     999900   -1    0    0    0    0 -0.00000000000E+00 -0.00000000000E+00 -0.74505805969E-08  0.93827000000E+00  0.93827000000E+00 0.  1.
     999902    2    1    2    0    0  0.10871335692E-01 -0.50609128937E-02  0.20786009478E-01  0.10199329800E+01  0.10196506395E+01 0.  0.
     999903    2    3    3    0    0 -0.96641303098E-01  0.49517045802E-01  0.68933056118E-01  0.13040734283E+00  0.21513473657E-01 0.  0.
         14    1    1    2    0    0 -0.10871335692E-01  0.50609128937E-02 -0.20786009478E-01  0.23997020004E-01  0.00000000000E+00 0. -1.
     999901    1    3    3    0    0  0.10751263879E+00 -0.54577958696E-01 -0.48147046639E-01  0.88952563717E+00  0.88000000000E+00 0.  1.
        -11    1    4    4    0    0 -0.74234712986E-01  0.27257626773E-01  0.50593670494E-01  0.93881582030E-01  0.51100000000E-03 0. -1.
         11    1    4    4    0    0 -0.22406590113E-01  0.22259419029E-01  0.18339385623E-01  0.36525760801E-01  0.51100000000E-03 0.  1.
</event>
<event>
 8    1  0.1093753E+005  0.1043930E+01  0.7957747E-01            NaN
         13   -1    0    0    0    0  0.00000000000E+00  0.00000000000E+00  0.74505805969E-08  0.10566000000E+00  0.10566000000E+00 0. -1.
     999900   -1    0    0    0    0 -0.00000000000E+00 -0.00000000000E+00 -0.74505805969E-08  0.93827000000E+00  0.93827000000E+00 0.  1.
     999902    2    1    2    0    0 -0.18148712668E-01  0.14914056972E-01 -0.59823322114E-02  0.10196896789E+01  0.10194015147E+01 0.  0.
     999903    2    3    3    0    0 -0.10172597144E+00 -0.46640668275E-02 -0.83950915701E-01  0.13208190456E+00  0.52864430644E-02 0.  0.
         14    1    1    2    0    0  0.18148712668E-01 -0.14914056972E-01  0.59823322114E-02  0.24240321070E-01  0.00000000000E+00 0.  1.
     999901    1    3    3    0    0  0.83577258769E-01  0.19578123799E-01  0.77968583490E-01  0.88760777437E+00  0.88000000000E+00 0. -1.
        -11    1    4    4    0    0 -0.26843509565E-01 -0.24096894342E-02 -0.19728470276E-01  0.33404404939E-01  0.51100000000E-03 0. -1.
         11    1    4    4    0    0 -0.74882461873E-01 -0.22543773933E-02 -0.64222445425E-01  0.98677499619E-01  0.51100000000E-03 0.  1.
</event>
<event>
 8    1  0.1093753E+005  0.1043930E+01  0.7957747E-01            NaN
         13   -1    0    0    0    0  0.00000000000E+00  0.00000000000E+00  0.74505805969E-08  0.10566000000E+00  0.10566000000E+00 0.  1.
     999900   -1    0    0    0    0 -0.00000000000E+00 -0.00000000000E+00 -0.74505805969E-08  0.93827000000E+00  0.93827000000E+00 0.  1.
     999902    2    1    2    0    0  0.15805505050E-01 -0.14130249908E-03 -0.17333730523E-01  0.10204716929E+01  0.10202020309E+01 0.  0.
     999903    2    3    3    0    0  0.64932796420E-01  0.75546301952E-01  0.82246011093E-01  0.13027046335E+00  0.16807007193E-01 0.  0.
         14    1    1    2    0    0 -0.15805505050E-01  0.14130249908E-03  0.17333730523E-01  0.23458307061E-01  0.00000000000E+00 0.  1.
     999901    1    3    3    0    0 -0.49127291370E-01 -0.75687604451E-01 -0.99579741616E-01  0.89020122959E+00  0.88000000000E+00 0.  1.
        -11    1    4    4    0    0  0.58104603270E-01  0.70065561800E-01  0.68317827570E-01  0.11381087187E+00  0.51100000000E-03 0. -1.
         11    1    4    4    0    0  0.68281931496E-02  0.54807401519E-02  0.13928183522E-01  0.16459591475E-01  0.51100000000E-03 0.  1.
</event>
<event>
 8    1  0.1093753E+005  0.1043930E+01  0.7957747E-01            NaN
         13   -1    0    0    0    0  0.00000000000E+00  0.00000000000E+00  0.74505805969E-08  0.10566000000E+00  0.10566000000E+00 0.  1.
     999900   -1    0    0    0    0 -0.00000000000E+00 -0.00000000000E+00 -0.74505805969E-08  0.93827000000E+00  0.93827000000E+00 0. -1.
     999902    2    1    2    0    0 -0.11098378769E-01 -0.21136305429E-01 -0.77147836674E-02  0.10188414507E+01  0.10185325063E+01 0.  0.
     999903    2    3    3    0    0  0.10012251641E+00 -0.64831727261E-01  0.45515319637E-01  0.12917138753E+00  0.19645149096E-01 0.  0.
         14    1    1    2    0    0  0.11098378769E-01  0.21136305429E-01  0.77147836674E-02  0.25088549291E-01  0.00000000000E+00 0.  1.
     999901    1    3    3    0    0 -0.11122089518E+00  0.43695421832E-01 -0.53230103304E-01  0.88967006318E+00  0.88000000000E+00 0. -1.
        -11    1    4    4    0    0  0.19999408634E-01 -0.50475419625E-02  0.11190826307E-01  0.23472318590E-01  0.51100000000E-03 0.  1.
         11    1    4    4    0    0  0.80123107780E-01 -0.59784185298E-01  0.34324493329E-01  0.10569906894E+00  0.51100000000E-03 0. -1.
</event>
<event>
 8    1  0.1093753E+005  0.1043930E+01  0.7957747E-01            NaN
         13   -1    0    0    0    0  0.00000000000E+00  0.00000000000E+00  0.74505805969E-08  0.10566000000E+00  0.10566000000E+00 0.  1.
     999900   -1    0    0    0    0 -0.00000000000E+00 -0.00000000000E+00 -0.74505805969E-08  0.93827000000E+00  0.93827000000E+00 0. -1.
     999902    2    1    2    0    0  0.50560159561E-02  0.13028108809E-01 -0.19322515260E-01  0.10200835220E+01  0.10198047545E+01 0.  0.
     999903    2    3    3    0    0  0.11883605984E-01  0.91392686326E-01  0.89343590657E-01  0.12991727598E+00  0.20059366938E-01 0.  0.
         14    1    1    2    0    0 -0.50560159561E-02 -0.13028108809E-01  0.19322515260E-01  0.23846477989E-01  0.00000000000E+00 0.  1.
     999901    1    3    3    0    0 -0.68275900282E-02 -0.78364577516E-01 -0.10866610592E+00  0.89016624603E+00  0.88000000000E+00 0.  1.
        -11    1    4    4    0    0  0.27730250248E-02  0.40784403226E-01  0.53052626707E-01  0.66976858211E-01  0.51100000000E-03 0.  1.
         11    1    4    4    0    0  0.91105809596E-02  0.50608283100E-01  0.36290963950E-01  0.62940417771E-01  0.51100000000E-03 0. -1.
</event>
<event>
 8    1  0.1093753E+005  0.1043930E+01  0.7957747E-01            NaN
         13   -1    0    0    0    0  0.00000000000E+00  0.00000000000E+00  0.74505805969E-08  0.10566000000E+00  0.10566000000E+00 0. -1.
     999900   -1    0    0    0    0 -0.00000000000E+00 -0.00000000000E+00 -0.74505805969E-08  0.93827000000E+00  0.93827000000E+00 0. -1.
     999902    2    1    2    0    0 -0.17046520590E-01  0.14651661387E-01 -0.44492202847E-02  0.10210160172E+01  0.10207588632E+01 0.  0.
     999903    2    3    3    0    0  0.65583724914E-01 -0.10620206554E+00  0.22910893898E-01  0.12850161586E+00  0.20190406662E-01 0.  0.
         14    1    1    2    0    0  0.17046520590E-01 -0.14651661387E-01  0.44492202847E-02  0.22913982778E-01  0.00000000000E+00 0.  1.
     999901    1    3    3    0    0 -0.82630245503E-01  0.12085372693E+00 -0.27360114183E-01  0.89251440136E+00  0.88000000000E+00 0.  1.
        -11    1    4    4    0    0  0.16939853070E-01 -0.42835761004E-01  0.29572353662E-02  0.46161319357E-01  0.51100000000E-03 0. -1.
         11    1    4    4    0    0  0.48643871844E-01 -0.63366304539E-01  0.19953658532E-01  0.82340296506E-01  0.51100000000E-03 0.  1.
</event>
<event>
 8    1  0.1093753E+005  0.1043930E+01  0.7957747E-01            NaN
         13   -1    0    0    0    0  0.00000000000E+00  0.00000000000E+00  0.74505805969E-08  0.10566000000E+00  0.10566000000E+00 0.  1.
     999900   -1    0    0    0    0 -0.00000000000E+00 -0.00000000000E+00 -0.74505805969E-08  0.93827000000E+00  0.93827000000E+00 0. -1.
     999902    2    1    2    0    0 -0.83609010117E-02 -0.20329096210E-01 -0.97274834017E-04  0.10219485014E+01  0.10217120696E+01 0.  0.
     999903    2    3    3    0    0  0.15194811713E-01  0.12046046794E-01 -0.12793448062E+00  0.13181066226E+00  0.25116325493E-01 0.  0.
         14    1    1    2    0    0  0.83609010117E-02  0.20329096210E-01  0.97274834017E-04  0.21981498603E-01  0.00000000000E+00 0.  1.
     999901    1    3    3    0    0 -0.23555712725E-01 -0.32375143004E-01  0.12783720579E+00  0.89013783914E+00  0.88000000000E+00 0. -1.
        -11    1    4    4    0    0  0.36364585951E-02  0.12115747137E-02 -0.96766603015E-01  0.96843834726E-01  0.51100000000E-03 0.  1.
         11    1    4    4    0    0  0.11558353118E-01  0.10834472080E-01 -0.31167877606E-01  0.34966827530E-01  0.51100000000E-03 0. -1.
</event>
<event>
 8    1  0.1093753E+005  0.1043930E+01  0.7957747E-01            NaN
         13   -1    0    0    0    0  0.00000000000E+00  0.00000000000E+00  0.74505805969E-08  0.10566000000E+00  0.10566000000E+00 0.  1.
     999900   -1    0    0    0    0 -0.00000000000E+00 -0.00000000000E+00 -0.74505805969E-08  0.93827000000E+00  0.93827000000E+00 0.  1.
     999902    2    1    2    0    0  0.21344443874E-02  0.23540137932E-01 -0.45915225264E-03  0.10202888332E+01  0.10200149011E+01 0.  0.
     999903    2    3    3    0    0  0.28498771156E-02 -0.76213408764E-01  0.10185906592E+00  0.12876188482E+00  0.19691322880E-01 0.  0.
         14    1    1    2    0    0 -0.21344443874E-02 -0.23540137932E-01  0.45915225264E-03  0.23641166797E-01  0.00000000000E+00 0.  1.
     999901    1    3    3    0    0 -0.71543272820E-03  0.99753546697E-01 -0.10231821818E+00  0.89152694838E+00  0.88000000000E+00 0.  1.
        -11    1    4    4    0    0  0.10118938958E-01 -0.46480395980E-01  0.69448340663E-01  0.84179292453E-01  0.51100000000E-03 0.  1.
         11    1    4    4    0    0 -0.72690618425E-02 -0.29733012784E-01  0.32410725260E-01  0.44582592367E-01  0.51100000000E-03 0. -1.
</event>
<event>
 8    1  0.1093753E+005  0.1043930E+01  0.7957747E-01            NaN
         13   -1    0    0    0    0  0.00000000000E+00  0.00000000000E+00  0.74505805969E-08  0.10566000000E+00  0.10566000000E+00 0.  1.
     999900   -1    0    0    0    0 -0.00000000000E+00 -0.00000000000E+00 -0.74505805969E-08  0.93827000000E+00  0.93827000000E+00 0.  1.
     999902    2    1    2    0    0 -0.17221071966E-01  0.10348576308E-01 -0.88266194905E-02  0.10219853523E+01  0.10217497212E+01 0.  0.
     999903    2    3    3    0    0  0.10736260902E+00 -0.56429418333E-01 -0.40263522425E-01  0.13015090970E+00  0.24639378823E-01 0.  0.
         14    1    1    2    0    0  0.17221071966E-01 -0.10348576308E-01  0.88266194905E-02  0.21944647705E-01  0.00000000000E+00 0.  1.
     999901    1    3    3    0    0 -0.12458368098E+00  0.66777994641E-01  0.31436902935E-01  0.89183444260E+00  0.88000000000E+00 0.  1.
        -11    1    4    4    0    0  0.54836943184E-01 -0.37451406169E-01 -0.11738970800E-01  0.67437101942E-01  0.51100000000E-03 0. -1.
         11    1    4    4    0    0  0.52525665833E-01 -0.18978012163E-01 -0.28524551625E-01  0.62713807756E-01  0.51100000000E-03 0.  1.
</event>
<event>
 8    1  0.1093753E+005  0.1043930E+01  0.7957747E-01            NaN
         13   -1    0    0    0    0  0.00000000000E+00  0.00000000000E+00  0.74505805969E-08  0.10566000000E+00  0.10566000000E+00 0.  1.
     999900   -1    0    0    0    0 -0.00000000000E+00 -0.00000000000E+00 -0.74505805969E-08  0.93827000000E+00  0.93827000000E+00 0.  1.
     999902    2    1    2    0    0  0.16957422282E-01  0.66246653334E-02 -0.20035848643E-01  0.10168583249E+01  0.10164978984E+01 0.  0.
     999903    2    3    3    0    0  0.11921605824E+00  0.34725645589E-01 -0.33736073224E-01  0.13038543200E+00  0.21068916367E-01 0.  0.
         14    1    1    2    0    0 -0.16957422282E-01 -0.66246653334E-02  0.20035848643E-01  0.27071675088E-01  0.00000000000E+00 0.  1.
     999901    1    3    3    0    0 -0.10225863596E+00 -0.28100980256E-01  0.13700224581E-01  0.88647289291E+00  0.88000000000E+00 0. -1.
        -11    1    4    4    0    0  0.15008513571E-01 -0.80243601433E-03 -0.90548565716E-02  0.17554228314E-01  0.51100000000E-03 0. -1.
         11    1    4    4    0    0  0.10420754467E+00  0.35528081603E-01 -0.24681216652E-01  0.11283120368E+00  0.51100000000E-03 0.  1.
</event>
<event>
 8    1  0.1093753E+005  0.1043930E+01  0.7957747E-01            NaN
         13   -1    0    0    0    0  0.00000000000E+00  0.00000000000E+00  0.74505805969E-08  0.10566000000E+00  0.10566000000E+00 0. -1.
     999900   -1    0    0    0    0 -0.00000000000E+00 -0.00000000000E+00 -0.74505805969E-08  0.93827000000E+00  0.93827000000E+00 0.  1.
     999902    2    1    2    0    0 -0.61890788854E-02  0.88888920248E-02  0.21516994799E-01  0.10198406213E+01  0.10195560773E+01 0.  0.
     999903    2    3    3    0    0 -0.11707846012E+00 -0.18348670434E-01  0.53856018130E-01  0.13187432012E+00  0.21126430988E-01 0.  0.
         14    1    1    2    0    0  0.61890788854E-02 -0.88888920248E-02 -0.21516994799E-01  0.24089378657E-01  0.00000000000E+00 0.  1.
     999901    1    3    3    0    0  0.11088938124E+00  0.27237562459E-01 -0.32339023331E-01  0.88796630122E+00  0.88000000000E+00 0.  1.
        -11    1    4    4    0    0 -0.23188320872E-01  0.94888407937E-03  0.31237417825E-02  0.23422585032E-01  0.51100000000E-03 0.  1.
         11    1    4    4    0    0 -0.93890139252E-01 -0.19297554513E-01  0.50732276347E-01  0.10845173509E+00  0.51100000000E-03 0. -1.
</event>
<event>
 8    1  0.1093753E+005  0.1043930E+01  0.7957747E-01            NaN
         13   -1    0    0    0    0  0.00000000000E+00  0.00000000000E+00  0.74505805969E-08  0.10566000000E+00  0.10566000000E+00 0. -1.
     999900   -1    0    0    0    0 -0.00000000000E+00 -0.00000000000E+00 -0.74505805969E-08  0.93827000000E+00  0.93827000000E+00 0.  1.
     999902    2    1    2    0    0 -0.20621413907E-01  0.77713026428E-02 -0.47585634015E-02  0.10213849389E+01  0.10211360896E+01 0.  0.
     999903    2    3    3    0    0 -0.55163803073E-01 -0.34062821962E-01  0.11310073757E+00  0.13187154073E+00  0.19874742907E-01 0.  0.
         14    1    1    2    0    0  0.20621413907E-01 -0.77713026428E-02  0.47585634015E-02  0.22545061143E-01  0.00000000000E+00 0.  1.
     999901    1    3    3    0    0  0.34542389166E-01  0.41834124605E-01 -0.11785930097E+00  0.88951339813E+00  0.88000000000E+00 0.  1.
        -11    1    4    4    0    0 -0.50677611001E-01 -0.23715195602E-01  0.87085724145E-01  0.10351239167E+00  0.51100000000E-03 0.  1.
         11    1    4    4    0    0 -0.44861920724E-02 -0.10347626359E-01  0.26015013421E-01  0.28359149051E-01  0.51100000000E-03 0. -1.
</event>
<event>
 8    1  0.1093753E+005  0.1043930E+01  0.7957747E-01            NaN
         13   -1    0    0    0    0  0.00000000000E+00  0.00000000000E+00  0.74505805969E-08  0.10566000000E+00  0.10566000000E+00 0.  1.
     999900   -1    0    0    0    0 -0.00000000000E+00 -0.00000000000E+00 -0.74505805969E-08  0.93827000000E+00  0.93827000000E+00 0. -1.
     999902    2    1    2    0    0 -0.95760244437E-02 -0.13554879002E-01  0.14788134827E-01  0.10217011017E+01  0.10214592587E+01 0.  0.
     999903    2    3    3    0    0 -0.75884432662E-01  0.15217542996E-01  0.10742795729E+00  0.13389099024E+00  0.19900013151E-01 0.  0.
         14    1    1    2    0    0  0.95760244437E-02  0.13554879002E-01 -0.14788134827E-01  0.22228898321E-01  0.00000000000E+00 0. -1.
     999901    1    3    3    0    0  0.66308408219E-01 -0.28772421998E-01 -0.92639822468E-01  0.88781011144E+00  0.88000000000E+00 0. -1.
        -11    1    4    4    0    0 -0.59403866783E-01  0.19186224183E-01  0.90379512931E-01  0.10984374386E+00  0.51100000000E-03 0.  1.
         11    1    4    4    0    0 -0.16480565879E-01 -0.39686811868E-02  0.17048444364E-01  0.24047246376E-01  0.51100000000E-03 0. -1.
</event>
<event>
 8    1  0.1093753E+005  0.1043930E+01  0.7957747E-01            NaN
         13   -1    0    0    0    0  0.00000000000E+00  0.00000000000E+00  0.74505805969E-08  0.10566000000E+00  0.10566000000E+00 0.  1.
     999900   -1    0    0    0    0 -0.00000000000E+00 -0.00000000000E+00 -0.74505805969E-08  0.93827000000E+00  0.93827000000E+00 0.  1.
     999902    2    1    2    0    0  0.90114965172E-02  0.21925626536E-01  0.24843689444E-02  0.10200948944E+01  0.10198163959E+01 0.  0.
     999903    2    3    3    0    0  0.10496682064E+00 -0.58802737768E-01 -0.44808349689E-01  0.12994822434E+00  0.20073798941E-01 0.  0.
         14    1    1    2    0    0 -0.90114965172E-02 -0.21925626536E-01 -0.24843689444E-02  0.23835105570E-01  0.00000000000E+00 0. -1.
     999901    1    3    3    0    0 -0.95955324122E-01  0.80728364304E-01  0.47292718634E-01  0.89014667009E+00  0.88000000000E+00 0.  1.
        -11    1    4    4    0    0  0.29411330906E-01 -0.69125288597E-02 -0.88354397277E-02  0.31482305460E-01  0.51100000000E-03 0.  1.
         11    1    4    4    0    0  0.75555489734E-01 -0.51890208909E-01 -0.35972909962E-01  0.98465918884E-01  0.51100000000E-03 0. -1.
</event>
<event>
 8    1  0.1093753E+005  0.1043930E+01  0.7957747E-01            NaN
         13   -1    0    0    0    0  0.00000000000E+00  0.00000000000E+00  0.74505805969E-08  0.10566000000E+00  0.10566000000E+00 0.  1.
     999900   -1    0    0    0    0 -0.00000000000E+00 -0.00000000000E+00 -0.74505805969E-08  0.93827000000E+00  0.93827000000E+00 0. -1.
     999902    2    1    2    0    0  0.16064718238E-01  0.15500275741E-03  0.17345940849E-01  0.10202872239E+01  0.10200132540E+01 0.  0.
     999903    2    3    3    0    0 -0.94666441269E-01 -0.71667531633E-01  0.48642422569E-01  0.12989442524E+00  0.20211537353E-01 0.  0.
         14    1    1    2    0    0 -0.16064718238E-01 -0.15500275741E-03 -0.17345940849E-01  0.23642776103E-01  0.00000000000E+00 0. -1.
     999901    1    3    3    0    0  0.11073115951E+00  0.71822534390E-01 -0.31296481720E-01  0.89039279866E+00  0.88000000000E+00 0. -1.
        -11    1    4    4    0    0 -0.70159613498E-01 -0.42001670749E-01  0.29668175974E-01  0.86988352660E-01  0.51100000000E-03 0.  1.
         11    1    4    4    0    0 -0.24506827771E-01 -0.29665860884E-01  0.18974246595E-01  0.42906072580E-01  0.51100000000E-03 0. -1.
</event>
<event>
 8    1  0.1093753E+005  0.1043930E+01  0.7957747E-01            NaN
         13   -1    0    0    0    0  0.00000000000E+00  0.00000000000E+00  0.74505805969E-08  0.10566000000E+00  0.10566000000E+00 0.  1.
     999900   -1    0    0    0    0 -0.00000000000E+00 -0.00000000000E+00 -0.74505805969E-08  0.93827000000E+00  0.93827000000E+00 0.  1.
     999902    2    1    2    0    0 -0.16981366564E-01  0.14478582740E-01  0.11699406779E-01  0.10187333278E+01  0.10184216813E+01 0.  0.
     999903    2    3    3    0    0 -0.57194665183E-01 -0.10688468144E+00  0.39463777704E-01  0.12906090972E+00  0.20093875086E-01 0.  0.
         14    1    1    2    0    0  0.16981366564E-01 -0.14478582740E-01 -0.11699406779E-01  0.25196672152E-01  0.00000000000E+00 0.  1.
     999901    1    3    3    0    0  0.40213298619E-01  0.12136326418E+00 -0.27764370925E-01  0.88967241812E+00  0.88000000000E+00 0.  1.
        -11    1    4    4    0    0 -0.21671510200E-01 -0.48392568360E-01  0.75901596550E-02  0.53566469656E-01  0.51100000000E-03 0.  1.
         11    1    4    4    0    0 -0.35523154984E-01 -0.58492113081E-01  0.31873618049E-01  0.75494440068E-01  0.51100000000E-03 0. -1.
</event>
<event>
 8    1  0.1093753E+005  0.1043930E+01  0.7957747E-01            NaN
         13   -1    0    0    0    0  0.00000000000E+00  0.00000000000E+00  0.74505805969E-08  0.10566000000E+00  0.10566000000E+00 0. -1.
     999900   -1    0    0    0    0 -0.00000000000E+00 -0.00000000000E+00 -0.74505805969E-08  0.93827000000E+00  0.93827000000E+00 0.  1.
     999902    2    1    2    0    0 -0.15630506472E-01  0.12763886450E-01 -0.16132102637E-02  0.10236856927E+01  0.10234854984E+01 0.  0.
     999903    2    3    3    0    0 -0.61505058855E-01 -0.78119135562E-01 -0.86987194939E-01  0.13371214508E+00  0.20656574062E-01 0.  0.
         14    1    1    2    0    0  0.15630506472E-01 -0.12763886450E-01  0.16132102637E-02  0.20244307280E-01  0.00000000000E+00 0. -1.
     999901    1    3    3    0    0  0.45874552383E-01  0.90883022012E-01  0.85373984675E-01  0.88997354764E+00  0.88000000000E+00 0. -1.
        -11    1    4    4    0    0 -0.21678451118E-01 -0.43130702353E-01 -0.46232128056E-01  0.66842228523E-01  0.51100000000E-03 0.  1.
         11    1    4    4    0    0 -0.39826607738E-01 -0.34988433209E-01 -0.40755066883E-01  0.66869916554E-01  0.51100000000E-03 0. -1.
</event>
<event>
 8    1  0.1093753E+005  0.1043930E+01  0.7957747E-01            NaN
         13   -1    0    0    0    0  0.00000000000E+00  0.00000000000E+00  0.74505805969E-08  0.10566000000E+00  0.10566000000E+00 0. -1.
     999900   -1    0    0    0    0 -0.00000000000E+00 -0.00000000000E+00 -0.74505805969E-08  0.93827000000E+00  0.93827000000E+00 0.  1.
     999902    2    1    2    0    0  0.50348495300E-02  0.21139989923E-01 -0.59557282086E-02  0.10213973663E+01  0.10211487944E+01 0.  0.
     999903    2    3    3    0    0  0.70741511107E-01  0.60428524842E-01 -0.94064586781E-01  0.13369013678E+00  0.19207763476E-01 0.  0.
         14    1    1    2    0    0 -0.50348495300E-02 -0.21139989923E-01  0.59557282086E-02  0.22532633717E-01  0.00000000000E+00 0. -1.
     999901    1    3    3    0    0 -0.65706661577E-01 -0.39288534919E-01  0.88108858573E-01  0.88770722950E+00  0.88000000000E+00 0. -1.
        -11    1    4    4    0    0  0.31396224263E-01  0.37040905622E-01 -0.40504957455E-01  0.63234992581E-01  0.51100000000E-03 0.  1.
         11    1    4    4    0    0  0.39345286844E-01  0.23387619220E-01 -0.53559629326E-01  0.70455144199E-01  0.51100000000E-03 0. -1.
</event>
<event>
 8    1  0.1093753E+005  0.1043930E+01  0.7957747E-01            NaN
         13   -1    0    0    0    0  0.00000000000E+00  0.00000000000E+00  0.74505805969E-08  0.10566000000E+00  0.10566000000E+00 0. -1.
     999900   -1    0    0    0    0 -0.00000000000E+00 -0.00000000000E+00 -0.74505805969E-08  0.93827000000E+00  0.93827000000E+00 0.  1.
     999902    2    1    2    0    0 -0.31908399424E-02  0.76452942273E-02  0.24017691002E-01  0.10185236727E+01  0.10182067523E+01 0.  0.
     999903    2    3    3    0    0  0.14440229817E-01  0.17190573634E-01 -0.12259531807E+00  0.12616873137E+00  0.19618886366E-01 0.  0.
         14    1    1    2    0    0  0.31908399424E-02 -0.76452942273E-02 -0.24017691002E-01  0.25406327251E-01  0.00000000000E+00 0.  1.
     999901    1    3    3    0    0 -0.17631069760E-01 -0.95452794071E-02  0.14661300907E+00  0.89235494138E+00  0.88000000000E+00 0. -1.
        -11    1    4    4    0    0  0.99685253647E-02  0.20345347527E-01 -0.77673633460E-01  0.80912045580E-01  0.51100000000E-03 0.  1.
         11    1    4    4    0    0  0.44717044525E-02 -0.31547738922E-02 -0.44921684612E-01  0.45256685787E-01  0.51100000000E-03 0. -1.
</event>
<event>
 8    1  0.1093753E+005  0.1043930E+01  0.7957747E-01            NaN
         13   -1    0    0    0    0  0.00000000000E+00  0.00000000000E+00  0.74505805969E-08  0.10566000000E+00  0.10566000000E+00 0. -1.
     999900   -1    0    0    0    0 -0.00000000000E+00 -0.00000000000E+00 -0.74505805969E-08  0.93827000000E+00  0.93827000000E+00 0. -1.
     999902    2    1    2    0    0  0.51435609434E-03  0.21910999916E-01  0.84988961597E-02  0.10204228157E+01  0.10201520156E+01 0.  0.
     999903    2    3    3    0    0  0.11763571294E-03  0.13127992360E+00  0.13951635095E-01  0.13363566464E+00  0.20722223948E-01 0.  0.
         14    1    1    2    0    0 -0.51435609434E-03 -0.21910999916E-01 -0.84988961597E-02  0.23507184336E-01  0.00000000000E+00 0. -1.
     999901    1    3    3    0    0  0.39672038140E-03 -0.10936892368E+00 -0.54527389348E-02  0.88678715102E+00  0.88000000000E+00 0.  1.
        -11    1    4    4    0    0  0.21439391373E-02  0.98217321938E-01  0.15272504116E-02  0.98253918082E-01  0.51100000000E-03 0. -1.
         11    1    4    4    0    0 -0.20263034244E-02  0.33062601657E-01  0.12424384683E-01  0.35381746560E-01  0.51100000000E-03 0.  1.
</event>
<event>
 8    1  0.1093753E+005  0.1043930E+01  0.7957747E-01            NaN
         13   -1    0    0    0    0  0.00000000000E+00  0.00000000000E+00  0.74505805969E-08  0.10566000000E+00  0.10566000000E+00 0.  1.
     999900   -1    0    0    0    0 -0.00000000000E+00 -0.00000000000E+00 -0.74505805969E-08  0.93827000000E+00  0.93827000000E+00 0. -1.
     999902    2    1    2    0    0  0.65905421900E-03  0.26054622932E-01  0.18807102236E-02  0.10177992748E+01  0.10174637826E+01 0.  0.
     999903    2    3    3    0    0  0.92721560824E-01 -0.63714061295E-01  0.55280674219E-01  0.12685288026E+00  0.19466145982E-01 0.  0.
         14    1    1    2    0    0 -0.65905421900E-03 -0.26054622932E-01 -0.18807102236E-02  0.26130725201E-01  0.00000000000E+00 0.  1.
     999901    1    3    3    0    0 -0.92062506605E-01  0.89768684227E-01 -0.53399963995E-01  0.89094639454E+00  0.88000000000E+00 0.  1.
        -11    1    4    4    0    0  0.50779648569E-01 -0.42775364201E-01  0.24513630160E-01  0.70777706066E-01  0.51100000000E-03 0. -1.
         11    1    4    4    0    0  0.41941912255E-01 -0.20938697094E-01  0.30767044058E-01  0.56075174192E-01  0.51100000000E-03 0.  1.
</event>
<event>
 8    1  0.1093753E+005  0.1043930E+01  0.7957747E-01            NaN
         13   -1    0    0    0    0  0.00000000000E+00  0.00000000000E+00  0.74505805969E-08  0.10566000000E+00  0.10566000000E+00 0. -1.
     999900   -1    0    0    0    0 -0.00000000000E+00 -0.00000000000E+00 -0.74505805969E-08  0.93827000000E+00  0.93827000000E+00 0. -1.
     999902    2    1    2    0    0  0.53265499528E-02  0.16109974468E-01  0.17432471345E-01  0.10196031739E+01  0.10193129243E+01 0.  0.
     999903    2    3    3    0    0  0.57882684846E-01 -0.72302485480E-01  0.89945318879E-01  0.13065040604E+00  0.20032813076E-01 0.  0.
         14    1    1    2    0    0 -0.53265499528E-02 -0.16109974468E-01 -0.17432471345E-01  0.24326826118E-01  0.00000000000E+00 0.  1.
     999901    1    3    3    0    0 -0.52556134893E-01  0.88412459948E-01 -0.72512847534E-01  0.88895276784E+00  0.88000000000E+00 0. -1.
        -11    1    4    4    0    0  0.10852630194E-01 -0.23589733127E-01  0.34197051442E-01  0.42941291776E-01  0.51100000000E-03 0.  1.
         11    1    4    4    0    0  0.47030054652E-01 -0.48712752353E-01  0.55748267438E-01  0.87709114268E-01  0.51100000000E-03 0. -1.
</event>
<event>
 8    1  0.1093753E+005  0.1043930E+01  0.7957747E-01            NaN
         13   -1    0    0    0    0  0.00000000000E+00  0.00000000000E+00  0.74505805969E-08  0.10566000000E+00  0.10566000000E+00 0.  1.
     999900   -1    0    0    0    0 -0.00000000000E+00 -0.00000000000E+00 -0.74505805969E-08  0.93827000000E+00  0.93827000000E+00 0.  1.
     999902    2    1    2    0    0  0.81772869515E-02  0.21251239572E-01  0.20947718505E-02  0.10210636213E+01  0.10208075467E+01 0.  0.
     999903    2    3    3    0    0  0.57503448576E-02  0.13033575778E+00 -0.23020135980E-01  0.13396944325E+00  0.19935115784E-01 0.  0.
         14    1    1    2    0    0 -0.81772869515E-02 -0.21251239572E-01 -0.20947718505E-02  0.22866378689E-01  0.00000000000E+00 0. -1.
     999901    1    3    3    0    0  0.24269420939E-02 -0.10908451821E+00  0.25114907831E-01  0.88709417806E+00  0.88000000000E+00 0. -1.
        -11    1    4    4    0    0 -0.51502574014E-02  0.39045023359E-01 -0.13038338211E-01  0.41488533171E-01  0.51100000000E-03 0.  1.
         11    1    4    4    0    0  0.10900602259E-01  0.91290734420E-01 -0.99817977694E-02  0.92480910075E-01  0.51100000000E-03 0. -1.
</event>
<event>
 8    1  0.1093753E+005  0.1043930E+01  0.7957747E-01            NaN
         13   -1    0    0    0    0  0.00000000000E+00  0.00000000000E+00  0.74505805969E-08  0.10566000000E+00  0.10566000000E+00 0. -1.
     999900   -1    0    0    0    0 -0.00000000000E+00 -0.00000000000E+00 -0.74505805969E-08  0.93827000000E+00  0.93827000000E+00 0. -1.
     999902    2    1    2    0    0  0.24817443915E-02 -0.25779923787E-01  0.43080707272E-02  0.10176750386E+01  0.10173363068E+01 0.  0.
     999903    2    3    3    0    0 -0.73536819392E-02 -0.12529801328E+00 -0.33816301033E-01  0.13119094201E+00  0.17715876495E-01 0.  0.
         14    1    1    2    0    0 -0.24817443915E-02  0.25779923787E-01 -0.43080707272E-02  0.26254961418E-01  0.00000000000E+00 0.  1.
     999901    1    3    3    0    0  0.98354263307E-02  0.99518089496E-01  0.38124371760E-01  0.88648409657E+00  0.88000000000E+00 0.  1.
        -11    1    4    4    0    0 -0.84539953851E-02 -0.87924295656E-01 -0.15994347017E-01  0.89767655991E-01  0.51100000000E-03 0. -1.
         11    1    4    4    0    0  0.11003134459E-02 -0.37373717627E-01 -0.17821954016E-01  0.41423286022E-01  0.51100000000E-03 0.  1.
</event>
<event>
 8    1  0.1093753E+005  0.1043930E+01  0.7957747E-01            NaN
         13   -1    0    0    0    0  0.00000000000E+00  0.00000000000E+00  0.74505805969E-08  0.10566000000E+00  0.10566000000E+00 0.  1.
     999900   -1    0    0    0    0 -0.00000000000E+00 -0.00000000000E+00 -0.74505805969E-08  0.93827000000E+00  0.93827000000E+00 0.  1.
     999902    2    1    2    0    0  0.11179399525E-01 -0.72855139874E-02 -0.18756262746E-01  0.10209114188E+01  0.10206518848E+01 0.  0.
     999903    2    3    3    0    0  0.56211549039E-01 -0.27058621080E-01  0.11193623667E+00  0.12990109358E+00  0.21275944498E-01 0.  0.
         14    1    1    2    0    0 -0.11179399525E-01  0.72855139874E-02  0.18756262746E-01  0.23018581190E-01  0.00000000000E+00 0.  1.
     999901    1    3    3    0    0 -0.45032149514E-01  0.19773107093E-01 -0.13069249942E+00  0.89101032523E+00  0.88000000000E+00 0.  1.
        -11    1    4    4    0    0  0.29817434476E-01 -0.17665855376E-01  0.41345468058E-01  0.53952485530E-01  0.51100000000E-03 0. -1.
         11    1    4    4    0    0  0.26394114563E-01 -0.93927657047E-02  0.70590768613E-01  0.75948608055E-01  0.51100000000E-03 0.  1.
</event>
<event>
 8    1  0.1093753E+005  0.1043930E+01  0.7957747E-01            NaN
         13   -1    0    0    0    0  0.00000000000E+00  0.00000000000E+00  0.74505805969E-08  0.10566000000E+00  0.10566000000E+00 0.  1.
     999900   -1    0    0    0    0 -0.00000000000E+00 -0.00000000000E+00 -0.74505805969E-08  0.93827000000E+00  0.93827000000E+00 0.  1.
     999902    2    1    2    0    0  0.51067430630E-02  0.13133231162E-01 -0.18226104866E-01  0.10208919557E+01  0.10206319776E+01 0.  0.
     999903    2    3    3    0    0  0.10963993433E+00 -0.53189162532E-01 -0.46037138868E-01  0.13179167927E+00  0.19990656783E-01 0.  0.
         14    1    1    2    0    0 -0.51067430630E-02 -0.13133231162E-01  0.18226104866E-01  0.23038044276E-01  0.00000000000E+00 0.  1.
     999901    1    3    3    0    0 -0.10453319127E+00  0.66322393694E-01  0.27811034001E-01  0.88910027646E+00  0.88000000000E+00 0.  1.
        -11    1    4    4    0    0  0.81822494872E-01 -0.33453940477E-01 -0.25616888802E-01  0.92035715423E-01  0.51100000000E-03 0. -1.
         11    1    4    4    0    0  0.27817439457E-01 -0.19735222055E-01 -0.20420250065E-01  0.39755963844E-01  0.51100000000E-03 0.  1.
</event>
<event>
 8    1  0.1093753E+005  0.1043930E+01  0.7957747E-01            NaN
         13   -1    0    0    0    0  0.00000000000E+00  0.00000000000E+00  0.74505805969E-08  0.10566000000E+00  0.10566000000E+00 0.  1.
     999900   -1    0    0    0    0 -0.00000000000E+00 -0.00000000000E+00 -0.74505805969E-08  0.93827000000E+00  0.93827000000E+00 0.  1.
     999902    2    1    2    0    0  0.25905876287E-01 -0.91965202942E-03  0.69753660290E-02  0.10170857098E+01  0.10167313928E+01 0.  0.
     999903    2    3    3    0    0 -0.21465097916E-02  0.11933636654E+00 -0.39321688264E-01  0.12725883696E+00  0.20070887663E-01 0.  0.
         14    1    1    2    0    0 -0.25905876287E-01  0.91965202942E-03 -0.69753660290E-02  0.26844290218E-01  0.00000000000E+00 0. -1.
     999901    1    3    3    0    0  0.28052386078E-01 -0.12025601857E+00  0.46297054293E-01  0.88982687283E+00  0.88000000000E+00 0.  1.
        -11    1    4    4    0    0 -0.96270118620E-02  0.55815215645E-01 -0.13141405978E-01  0.58146154877E-01  0.51100000000E-03 0.  1.
         11    1    4    4    0    0  0.74805020704E-02  0.63521150898E-01 -0.26180282286E-01  0.69112682079E-01  0.51100000000E-03 0. -1.
</event>
<event>
 8    1  0.1093753E+005  0.1043930E+01  0.7957747E-01            NaN
         13   -1    0    0    0    0  0.00000000000E+00  0.00000000000E+00  0.74505805969E-08  0.10566000000E+00  0.10566000000E+00 0. -1.
     999900   -1    0    0    0    0 -0.00000000000E+00 -0.00000000000E+00 -0.74505805969E-08  0.93827000000E+00  0.93827000000E+00 0. -1.
     999902    2    1    2    0    0  0.10453014616E-01 -0.16441975807E-01  0.14300398474E-01  0.10197617258E+01  0.10194752924E+01 0.  0.
     999903    2    3    3    0    0  0.37395867599E-01 -0.11289876115E+00  0.56270089389E-01  0.13308744300E+00  0.20034054540E-01 0.  0.
         14    1    1    2    0    0 -0.10453014616E-01  0.16441975807E-01 -0.14300398474E-01  0.24168274235E-01  0.00000000000E+00 0.  1.
     999901    1    3    3    0    0 -0.26942852983E-01  0.96456785342E-01 -0.41969690915E-01  0.88667428277E+00  0.88000000000E+00 0.  1.
        -11    1    4    4    0    0  0.29829329891E-01 -0.76342980469E-01  0.47510764724E-01  0.94739503240E-01  0.51100000000E-03 0.  1.
         11    1    4    4    0    0  0.75665377084E-02 -0.36555780680E-01  0.87593246651E-02  0.38347939757E-01  0.51100000000E-03 0. -1.
</event>
<event>
 8    1  0.1093753E+005  0.1043930E+01  0.7957747E-01            NaN
         13   -1    0    0    0    0  0.00000000000E+00  0.00000000000E+00  0.74505805969E-08  0.10566000000E+00  0.10566000000E+00 0. -1.
     999900   -1    0    0    0    0 -0.00000000000E+00 -0.00000000000E+00 -0.74505805969E-08  0.93827000000E+00  0.93827000000E+00 0. -1.
     999902    2    1    2    0    0  0.10507868806E-02  0.92316781034E-03  0.24051282405E-01  0.10198380807E+01  0.10195534759E+01 0.  0.
     999903    2    3    3    0    0 -0.10454387656E+00 -0.10685388528E-01 -0.71253558665E-01  0.12834046190E+00  0.18724446190E-01 0.  0.
         14    1    1    2    0    0 -0.10507868806E-02 -0.92316781034E-03 -0.24051282405E-01  0.24091919335E-01  0.00000000000E+00 0.  1.
     999901    1    3    3    0    0  0.10559466344E+00  0.11608556339E-01  0.95304841070E-01  0.89149761876E+00  0.88000000000E+00 0.  1.
        -11    1    4    4    0    0 -0.77101416952E-01 -0.87746309881E-02 -0.61951507972E-01  0.99296893738E-01  0.51100000000E-03 0.  1.
         11    1    4    4    0    0 -0.27442459608E-01 -0.19107575403E-02 -0.93020506921E-02  0.29043568165E-01  0.51100000000E-03 0. -1.
</event>
<event>
 7    1  0.1093753E+005  0.1043930E+01  0.7957747E-01            NaN
         13   -1    0    0    0    0  0.00000000000E+00  0.00000000000E+00  0.74505805969E-08  0.10566000000E+00  0.10566000000E+00 0.  1.
     999900   -1    0    0    0    0 -0.00000000000E+00 -0.00000000000E+00 -0.74505805969E-08  0.93827000000E+00  0.93827000000E+00 0.  1.
     999903    2    1    2    0    0  0.49517574702E-01 -0.46590821976E-01  0.46738619494E-01  0.84917897585E-01  0.20096165838E-01 0.  0.
         14    1    1    2    0    0 -0.64862353507E-01  0.73532456143E-02 -0.42684822592E-01  0.77994802412E-01  0.00000000000E+00 0. -1.
     999901    1    1    2    0    0  0.15344778805E-01  0.39237576362E-01 -0.40537969018E-02  0.88101730000E+00  0.88000000000E+00 0.  1.
        -11    1    3    3    0    0  0.92746510992E-02 -0.11070501421E-02  0.11038767378E-01  0.14469285375E-01  0.51100000000E-03 0.  1.
         11    1    3    3    0    0  0.40242923602E-01 -0.45483771834E-01  0.35699852116E-01  0.70448612211E-01  0.51100000000E-03 0. -1.
</event>
<event>
 8    1  0.1093753E+005  0.1043930E+01  0.7957747E-01            NaN
         13   -1    0    0    0    0  0.00000000000E+00  0.00000000000E+00  0.74505805969E-08  0.10566000000E+00  0.10566000000E+00 0.  1.
     999900   -1    0    0    0    0 -0.00000000000E+00 -0.00000000000E+00 -0.74505805969E-08  0.93827000000E+00  0.93827000000E+00 0. -1.
     999902    2    1    2    0    0  0.14734178327E-01 -0.15874758781E-01 -0.96831486182E-02  0.10202051745E+01  0.10199292773E+01 0.  0.
     999903    2    3    3    0    0 -0.10992977159E+00  0.60757038563E-01 -0.15663871052E-01  0.12810131183E+00  0.19713366501E-01 0.  0.
         14    1    1    2    0    0 -0.14734178327E-01  0.15874758781E-01  0.96831486182E-02  0.23724825489E-01  0.00000000000E+00 0.  1.
     999901    1    3    3    0    0  0.12466394992E+00 -0.76631797344E-01  0.59807224340E-02  0.89210386268E+00  0.88000000000E+00 0. -1.
        -11    1    4    4    0    0 -0.40759302947E-01  0.16000841008E-01 -0.12960008461E-01  0.45668048240E-01  0.51100000000E-03 0.  1.
         11    1    4    4    0    0 -0.69170468643E-01  0.44756197554E-01 -0.27038625910E-02  0.82433263588E-01  0.51100000000E-03 0. -1.
</event>
<event>
 8    1  0.1093753E+005  0.1043930E+01  0.7957747E-01            NaN
         13   -1    0    0    0    0  0.00000000000E+00  0.00000000000E+00  0.74505805969E-08  0.10566000000E+00  0.10566000000E+00 0.  1.
     999900   -1    0    0    0    0 -0.00000000000E+00 -0.00000000000E+00 -0.74505805969E-08  0.93827000000E+00  0.93827000000E+00 0. -1.
     999902    2    1    2    0    0 -0.81308128619E-02  0.26285517795E-02  0.21690734271E-01  0.10206167558E+01  0.10203504569E+01 0.  0.
     999903    2    3    3    0    0 -0.81298727195E-02 -0.10135841906E+00  0.82697646893E-01  0.13239655027E+00  0.18716884835E-01 0.  0.
         14    1    1    2    0    0  0.81308128619E-02 -0.26285517795E-02 -0.21690734271E-01  0.23313244207E-01  0.00000000000E+00 0. -1.
     999901    1    3    3    0    0 -0.94014242458E-06  0.10398697084E+00 -0.61006912622E-01  0.88822020552E+00  0.88000000000E+00 0.  1.
        -11    1    4    4    0    0 -0.78233046468E-02 -0.50306035064E-01  0.30347284859E-01  0.59271579014E-01  0.51100000000E-03 0.  1.
         11    1    4    4    0    0 -0.30656807269E-03 -0.51052383995E-01  0.52350362035E-01  0.73124971260E-01  0.51100000000E-03 0. -1.
</event>
<event>
 8    1  0.1093753E+005  0.1043930E+01  0.7957747E-01            NaN
         13   -1    0    0    0    0  0.00000000000E+00  0.00000000000E+00  0.74505805969E-08  0.10566000000E+00  0.10566000000E+00 0. -1.
     999900   -1    0    0    0    0 -0.00000000000E+00 -0.00000000000E+00 -0.74505805969E-08  0.93827000000E+00  0.93827000000E+00 0.  1.
     999902    2    1    2    0    0  0.59614601793E-02  0.19477290869E-01  0.98300638422E-02  0.10213128821E+01  0.10210624218E+01 0.  0.
     999903    2    3    3    0    0  0.24776108011E-01  0.11321370773E+00  0.65077399025E-01  0.13441222539E+00  0.20009480872E-01 0.  0.
         14    1    1    2    0    0 -0.59614601793E-02 -0.19477290869E-01 -0.98300638422E-02  0.22617117902E-01  0.00000000000E+00 0. -1.
     999901    1    3    3    0    0 -0.18814647832E-01 -0.93736416862E-01 -0.55247335183E-01  0.88690065671E+00  0.88000000000E+00 0. -1.
        -11    1    4    4    0    0  0.53545336446E-02  0.34722985236E-01  0.98478865521E-02  0.36491077332E-01  0.51100000000E-03 0.  1.
         11    1    4    4    0    0  0.19421574367E-01  0.78490722495E-01  0.55229512473E-01  0.97921148061E-01  0.51100000000E-03 0. -1.
</event>
<event>
 8    1  0.1093753E+005  0.1043930E+01  0.7957747E-01            NaN
         13   -1    0    0    0    0  0.00000000000E+00  0.00000000000E+00  0.74505805969E-08  0.10566000000E+00  0.10566000000E+00 0.  1.
     999900   -1    0    0    0    0 -0.00000000000E+00 -0.00000000000E+00 -0.74505805969E-08  0.93827000000E+00  0.93827000000E+00 0.  1.
     999902    2    1    2    0    0 -0.22940141320E-01  0.36264594349E-02  0.31083018810E-02  0.10204979102E+01  0.10202288576E+01 0.  0.
     999903    2    3    3    0    0 -0.88948212618E-01  0.56592066574E-01 -0.77922869568E-01  0.13273190963E+00  0.20768719416E-01 0.  0.
         14    1    1    2    0    0  0.22940141320E-01 -0.36264594349E-02 -0.31083018810E-02  0.23432089800E-01  0.00000000000E+00 0. -1.
     999901    1    3    3    0    0  0.66008071298E-01 -0.52965607139E-01  0.81031171449E-01  0.88776600057E+00  0.88000000000E+00 0. -1.
        -11    1    4    4    0    0 -0.76581451330E-01  0.55767927277E-01 -0.71965090405E-01  0.11897065083E+00  0.51100000000E-03 0.  1.
         11    1    4    4    0    0 -0.12366761288E-01  0.82413929656E-03 -0.59577791632E-02  0.13761258805E-01  0.51100000000E-03 0. -1.
</event>
<event>
 8    1  0.1093753E+005  0.1043930E+01  0.7957747E-01            NaN
         13   -1    0    0    0    0  0.00000000000E+00  0.00000000000E+00  0.74505805969E-08  0.10566000000E+00  0.10566000000E+00 0. -1.
     999900   -1    0    0    0    0 -0.00000000000E+00 -0.00000000000E+00 -0.74505805969E-08  0.93827000000E+00  0.93827000000E+00 0.  1.
     999902    2    1    2    0    0  0.70674752667E-02 -0.14100308955E-01  0.17252286346E-01  0.10205546005E+01  0.10202868632E+01 0.  0.
     999903    2    3    3    0    0  0.38731106829E-01 -0.32458244314E-01  0.12203197516E+00  0.13358313388E+00  0.19975345646E-01 0.  0.
         14    1    1    2    0    0 -0.70674752667E-02  0.14100308955E-01 -0.17252286346E-01  0.23375399535E-01  0.00000000000E+00 0.  1.
     999901    1    3    3    0    0 -0.31663631562E-01  0.18357935359E-01 -0.10477968882E+00  0.88697146659E+00  0.88000000000E+00 0.  1.
        -11    1    4    4    0    0  0.27804994394E-01 -0.14629657247E-01  0.54769550121E-01  0.63143561238E-01  0.51100000000E-03 0. -1.
         11    1    4    4    0    0  0.10926112435E-01 -0.17828587067E-01  0.67262425043E-01  0.70439572638E-01  0.51100000000E-03 0.  1.
</event>
<event>
 8    1  0.1093753E+005  0.1043930E+01  0.7957747E-01            NaN
         13   -1    0    0    0    0  0.00000000000E+00  0.00000000000E+00  0.74505805969E-08  0.10566000000E+00  0.10566000000E+00 0.  1.
     999900   -1    0    0    0    0 -0.00000000000E+00 -0.00000000000E+00 -0.74505805969E-08  0.93827000000E+00  0.93827000000E+00 0. -1.
     999902    2    1    2    0    0 -0.23483042387E-01 -0.60959982780E-02  0.28491585661E-02  0.10195018978E+01  0.10192091970E+01 0.  0.
     999903    2    3    3    0    0 -0.82677356099E-01 -0.43344887627E-01  0.91826490312E-01  0.13225423667E+00  0.18567560416E-01 0.  0.
         14    1    1    2    0    0  0.23483042387E-01  0.60959982780E-02 -0.28491585661E-02  0.24428102245E-01  0.00000000000E+00 0. -1.
     999901    1    3    3    0    0  0.59194313712E-01  0.37248889349E-01 -0.88977331746E-01  0.88724766108E+00  0.88000000000E+00 0. -1.
        -11    1    4    4    0    0 -0.23772024141E-01 -0.21756882201E-01  0.27058593200E-01  0.42082058432E-01  0.51100000000E-03 0.  1.
         11    1    4    4    0    0 -0.58905331958E-01 -0.21588005426E-01  0.64767897112E-01  0.90172178240E-01  0.51100000000E-03 0. -1.
</event>
<event>
 8    1  0.1093753E+005  0.1043930E+01  0.7957747E-01            NaN
         13   -1    0    0    0    0  0.00000000000E+00  0.00000000000E+00  0.74505805969E-08  0.10566000000E+00  0.10566000000E+00 0. -1.
     999900   -1    0    0    0    0 -0.00000000000E+00 -0.00000000000E+00 -0.74505805969E-08  0.93827000000E+00  0.93827000000E+00 0.  1.
     999902    2    1    2    0    0 -0.84602559459E-02  0.20606505450E-01  0.25754941164E-02  0.10215059690E+01  0.10212598139E+01 0.  0.
     999903    2    3    3    0    0  0.49274046538E-01 -0.75514959013E-01  0.91417080861E-01  0.12995371972E+00  0.20011144363E-01 0.  0.
         14    1    1    2    0    0  0.84602559459E-02 -0.20606505450E-01 -0.25754941164E-02  0.22424031027E-01  0.00000000000E+00 0.  1.
     999901    1    3    3    0    0 -0.57734302484E-01  0.96121464464E-01 -0.88841586745E-01  0.89155224925E+00  0.88000000000E+00 0.  1.
        -11    1    4    4    0    0  0.90018772835E-02 -0.10596598479E-01  0.25505270325E-01  0.29053427152E-01  0.51100000000E-03 0. -1.
         11    1    4    4    0    0  0.40272169255E-01 -0.64918360535E-01  0.65911810536E-01  0.10090029257E+00  0.51100000000E-03 0.  1.
</event>
<event>
 8    1  0.1093753E+005  0.1043930E+01  0.7957747E-01            NaN
         13   -1    0    0    0    0  0.00000000000E+00  0.00000000000E+00  0.74505805969E-08  0.10566000000E+00  0.10566000000E+00 0. -1.
     999900   -1    0    0    0    0 -0.00000000000E+00 -0.00000000000E+00 -0.74505805969E-08  0.93827000000E+00  0.93827000000E+00 0.  1.
     999902    2    1    2    0    0 -0.12262017811E-02 -0.19705315198E-01  0.12483683254E-01  0.10205709468E+01  0.10203035882E+01 0.  0.
     999903    2    3    3    0    0 -0.24441930127E-01  0.80148963982E-01 -0.94636379319E-01  0.12816713972E+00  0.21201581045E-01 0.  0.
         14    1    1    2    0    0  0.12262017811E-02  0.19705315198E-01 -0.12483683254E-01  0.23359053180E-01  0.00000000000E+00 0.  1.
     999901    1    3    3    0    0  0.23215728346E-01 -0.99854279180E-01  0.10712006257E+00  0.89240380710E+00  0.88000000000E+00 0. -1.
        -11    1    4    4    0    0 -0.71006798009E-02  0.49364723703E-01 -0.65749849703E-01  0.82526356134E-01  0.51100000000E-03 0. -1.
         11    1    4    4    0    0 -0.17341250326E-01  0.30784240279E-01 -0.28886529616E-01  0.45640783590E-01  0.51100000000E-03 0.  1.
</event>
<event>
 8    1  0.1093753E+005  0.1043930E+01  0.7957747E-01            NaN
         13   -1    0    0    0    0  0.00000000000E+00  0.00000000000E+00  0.74505805969E-08  0.10566000000E+00  0.10566000000E+00 0.  1.
     999900   -1    0    0    0    0 -0.00000000000E+00 -0.00000000000E+00 -0.74505805969E-08  0.93827000000E+00  0.93827000000E+00 0. -1.
     999902    2    1    2    0    0 -0.13811576197E-01  0.14831553359E-01 -0.11710626384E-01  0.10205233048E+01  0.10202548418E+01 0.  0.
     999903    2    3    3    0    0 -0.51971604747E-01  0.26265880566E-01 -0.11824966253E+00  0.13320290161E+00  0.19211614339E-01 0.  0.
         14    1    1    2    0    0  0.13811576197E-01 -0.14831553359E-01  0.11710626384E-01  0.23406695247E-01  0.00000000000E+00 0.  1.
     999901    1    3    3    0    0  0.38160028550E-01 -0.11434327207E-01  0.10653903615E+00  0.88732040315E+00  0.88000000000E+00 0.  1.
        -11    1    4    4    0    0 -0.17501601338E-01  0.99274426382E-02 -0.22808084696E-01  0.30419237585E-01  0.51100000000E-03 0.  1.
         11    1    4    4    0    0 -0.34470003409E-01  0.16338437928E-01 -0.95441577835E-01  0.10278366402E+00  0.51100000000E-03 0. -1.
</event>
<event>
 8    1  0.1093753E+005  0.1043930E+01  0.7957747E-01            NaN
         13   -1    0    0    0    0  0.00000000000E+00  0.00000000000E+00  0.74505805969E-08  0.10566000000E+00  0.10566000000E+00 0. -1.
     999900   -1    0    0    0    0 -0.00000000000E+00 -0.00000000000E+00 -0.74505805969E-08  0.93827000000E+00  0.93827000000E+00 0. -1.
     999902    2    1    2    0    0 -0.96659428719E-02  0.19227658779E-01  0.90256711770E-02  0.10205934181E+01  0.10203265796E+01 0.  0.
     999903    2    3    3    0    0  0.16765758681E-01 -0.95336783249E-01 -0.81572716187E-01  0.12816318890E+00  0.20037516292E-01 0.  0.
         14    1    1    2    0    0  0.96659428719E-02 -0.19227658779E-01 -0.90256711770E-02  0.23336581882E-01  0.00000000000E+00 0.  1.
     999901    1    3    3    0    0 -0.26431701553E-01  0.11456444203E+00  0.90598387364E-01  0.89243022922E+00  0.88000000000E+00 0.  1.
        -11    1    4    4    0    0  0.20707252112E-02 -0.52387376094E-01 -0.52837037498E-01  0.74436138599E-01  0.51100000000E-03 0.  1.
         11    1    4    4    0    0  0.14695033470E-01 -0.42949407155E-01 -0.28735678689E-01  0.53727050304E-01  0.51100000000E-03 0. -1.
</event>
<event>
 8    1  0.1093753E+005  0.1043930E+01  0.7957747E-01            NaN
         13   -1    0    0    0    0  0.00000000000E+00  0.00000000000E+00  0.74505805969E-08  0.10566000000E+00  0.10566000000E+00 0. -1.
     999900   -1    0    0    0    0 -0.00000000000E+00 -0.00000000000E+00 -0.74505805969E-08  0.93827000000E+00  0.93827000000E+00 0.  1.
     999902    2    1    2    0    0  0.21320708956E-01 -0.98044554904E-02 -0.16352410389E-02  0.10204060975E+01  0.10201349076E+01 0.  0.
     999903    2    3    3    0    0 -0.75979731574E-01 -0.54648262542E-01  0.87303585555E-01  0.12945803071E+00  0.19445139630E-01 0.  0.
         14    1    1    2    0    0 -0.21320708956E-01  0.98044554904E-02  0.16352410389E-02  0.23523902548E-01  0.00000000000E+00 0. -1.
     999901    1    3    3    0    0  0.97300440530E-01  0.44843807051E-01 -0.88938826594E-01  0.89094806674E+00  0.88000000000E+00 0.  1.
        -11    1    4    4    0    0 -0.45141616556E-01 -0.26056472788E-01  0.59193507752E-01  0.78872287912E-01  0.51100000000E-03 0. -1.
         11    1    4    4    0    0 -0.30838115019E-01 -0.28591789754E-01  0.28110077803E-01  0.50585742797E-01  0.51100000000E-03 0.  1.
</event>
<event>
 8    1  0.1093753E+005  0.1043930E+01  0.7957747E-01            NaN
         13   -1    0    0    0    0  0.00000000000E+00  0.00000000000E+00  0.74505805969E-08  0.10566000000E+00  0.10566000000E+00 0. -1.
     999900   -1    0    0    0    0 -0.00000000000E+00 -0.00000000000E+00 -0.74505805969E-08  0.93827000000E+00  0.93827000000E+00 0.  1.
     999902    2    1    2    0    0 -0.23058655200E-01 -0.57358312148E-02  0.91187281459E-03  0.10201511680E+01  0.10198739985E+01 0.  0.
     999903    2    3    3    0    0 -0.12387759820E+00 -0.13366523629E-01  0.43270604075E-01  0.13334964068E+00  0.19633089489E-01 0.  0.
         14    1    1    2    0    0  0.23058655200E-01  0.57358312148E-02 -0.91187281459E-03  0.23778832002E-01  0.00000000000E+00 0. -1.
     999901    1    3    3    0    0  0.10081894300E+00  0.76306924145E-02 -0.42358731260E-01  0.88680152732E+00  0.88000000000E+00 0.  1.
        -11    1    4    4    0    0 -0.78562955723E-01 -0.17927418989E-01  0.28119492944E-01  0.85349266944E-01  0.51100000000E-03 0.  1.
         11    1    4    4    0    0 -0.45314642480E-01  0.45608953593E-02  0.15151111131E-01  0.48000373739E-01  0.51100000000E-03 0. -1.
</event>
<event>
 8    1  0.1093753E+005  0.1043930E+01  0.7957747E-01            NaN
         13   -1    0    0    0    0  0.00000000000E+00  0.00000000000E+00  0.74505805969E-08  0.10566000000E+00  0.10566000000E+00 0.  1.
     999900   -1    0    0    0    0 -0.00000000000E+00 -0.00000000000E+00 -0.74505805969E-08  0.93827000000E+00  0.93827000000E+00 0. -1.
     999902    2    1    2    0    0  0.40866603379E-02 -0.21192761854E-01  0.92011619845E-02  0.10204673631E+01  0.10201976004E+01 0.  0.
     999903    2    3    3    0    0 -0.65069198627E-01  0.74571321324E-01  0.81293189964E-01  0.12965281847E+00  0.20159068141E-01 0.  0.
         14    1    1    2    0    0 -0.40866603379E-02  0.21192761854E-01 -0.92011619845E-02  0.23462636885E-01  0.00000000000E+00 0. -1.
     999901    1    3    3    0    0  0.69155858965E-01 -0.95764083178E-01 -0.72092027979E-01  0.89081454465E+00  0.88000000000E+00 0. -1.
        -11    1    4    4    0    0 -0.38607294059E-01  0.48980832507E-01  0.38902835211E-01  0.73507392934E-01  0.51100000000E-03 0. -1.
         11    1    4    4    0    0 -0.26461904568E-01  0.25590488817E-01  0.42390354753E-01  0.56145425534E-01  0.51100000000E-03 0.  1.
</event>
<event>
 8    1  0.1093753E+005  0.1043930E+01  0.7957747E-01            NaN
         13   -1    0    0    0    0  0.00000000000E+00  0.00000000000E+00  0.74505805969E-08  0.10566000000E+00  0.10566000000E+00 0.  1.
     999900   -1    0    0    0    0 -0.00000000000E+00 -0.00000000000E+00 -0.74505805969E-08  0.93827000000E+00  0.93827000000E+00 0.  1.
     999902    2    1    2    0    0 -0.13093997566E-01 -0.16358450113E-01 -0.11514903141E-02  0.10229448245E+01  0.10227295519E+01 0.  0.
     999903    2    3    3    0    0 -0.12827551541E+00  0.33451527227E-01  0.27924981805E-02  0.13403348415E+00  0.19584797656E-01 0.  0.
         14    1    1    2    0    0  0.13093997566E-01  0.16358450113E-01  0.11514903141E-02  0.20985175537E-01  0.00000000000E+00 0.  1.
     999901    1    3    3    0    0  0.11518151784E+00 -0.49809977340E-01 -0.39439884946E-02  0.88891134032E+00  0.88000000000E+00 0.  1.
        -11    1    4    4    0    0 -0.10720698779E+00  0.21661717493E-01 -0.20982084028E-02  0.10939484373E+00  0.51100000000E-03 0. -1.
         11    1    4    4    0    0 -0.21068527621E-01  0.11789809734E-01  0.48907065833E-02  0.24638640417E-01  0.51100000000E-03 0.  1.
</event>
<event>
 8    1  0.1093753E+005  0.1043930E+01  0.7957747E-01            NaN
         13   -1    0    0    0    0  0.00000000000E+00  0.00000000000E+00  0.74505805969E-08  0.10566000000E+00  0.10566000000E+00 0.  1.
     999900   -1    0    0    0    0 -0.00000000000E+00 -0.00000000000E+00 -0.74505805969E-08  0.93827000000E+00  0.93827000000E+00 0. -1.
     999902    2    1    2    0    0  0.25410081481E-01  0.31943784768E-02  0.50612615791E-02  0.10178245856E+01  0.10174897514E+01 0.  0.
     999903    2    3    3    0    0  0.86158866087E-01 -0.17367872567E-01 -0.93663778464E-01  0.12998459179E+00  0.19952380880E-01 0.  0.
         14    1    1    2    0    0 -0.25410081481E-01 -0.31943784768E-02 -0.50612615791E-02  0.26105414448E-01  0.00000000000E+00 0.  1.
     999901    1    3    3    0    0 -0.60748784606E-01  0.20562251043E-01  0.98725040043E-01  0.88783999377E+00  0.88000000000E+00 0.  1.
        -11    1    4    4    0    0  0.25173906207E-01  0.19066182010E-02 -0.35271994259E-01  0.43378974707E-01  0.51100000000E-03 0.  1.
         11    1    4    4    0    0  0.60984959880E-01 -0.19274490767E-01 -0.58391784205E-01  0.86605617079E-01  0.51100000000E-03 0. -1.
</event>
<event>
 8    1  0.1093753E+005  0.1043930E+01  0.7957747E-01            NaN
         13   -1    0    0    0    0  0.00000000000E+00  0.00000000000E+00  0.74505805969E-08  0.10566000000E+00  0.10566000000E+00 0.  1.
     999900   -1    0    0    0    0 -0.00000000000E+00 -0.00000000000E+00 -0.74505805969E-08  0.93827000000E+00  0.93827000000E+00 0.  1.
     999902    2    1    2    0    0  0.20827442169E-01  0.11711651259E-02 -0.17789684137E-01  0.10165141864E+01  0.10161444111E+01 0.  0.
     999903    2    3    3    0    0  0.51080918713E-01 -0.11369024978E+00  0.21336195254E-01  0.12767266399E+00  0.17616547639E-01 0.  0.
         14    1    1    2    0    0 -0.20827442169E-01 -0.11711651259E-02  0.17789684137E-01  0.27415813625E-01  0.00000000000E+00 0.  1.
     999901    1    3    3    0    0 -0.30253476544E-01  0.11486141491E+00 -0.39125879390E-01  0.88884152238E+00  0.88000000000E+00 0.  1.
        -11    1    4    4    0    0  0.14092184051E-01 -0.28982696370E-01  0.13380654429E-01  0.34898271794E-01  0.51100000000E-03 0.  1.
         11    1    4    4    0    0  0.36988734662E-01 -0.84707553410E-01  0.79555408245E-02  0.92774392196E-01  0.51100000000E-03 0. -1.
</event>
<event>
 8    1  0.1093753E+005  0.1043930E+01  0.7957747E-01            NaN
         13   -1    0    0    0    0  0.00000000000E+00  0.00000000000E+00  0.74505805969E-08  0.10566000000E+00  0.10566000000E+00 0.  1.
     999900   -1    0    0    0    0 -0.00000000000E+00 -0.00000000000E+00 -0.74505805969E-08  0.93827000000E+00  0.93827000000E+00 0. -1.
     999902    2    1    2    0    0  0.11407695189E-01 -0.17469377142E-01 -0.10598998521E-01  0.10205280040E+01  0.10202596501E+01 0.  0.
     999903    2    3    3    0    0  0.55435960998E-01  0.11348127471E+00  0.18588904354E-01  0.12927130973E+00  0.20356293195E-01 0.  0.
         14    1    1    2    0    0 -0.11407695189E-01  0.17469377142E-01  0.10598998521E-01  0.23401996003E-01  0.00000000000E+00 0. -1.
     999901    1    3    3    0    0 -0.44028265809E-01 -0.13095065185E+00 -0.29187902875E-01  0.89125669427E+00  0.88000000000E+00 0.  1.
        -11    1    4    4    0    0  0.30014385696E-01  0.81627646446E-01  0.15998486435E-01  0.88431604657E-01  0.51100000000E-03 0. -1.
         11    1    4    4    0    0  0.25421575302E-01  0.31853628259E-01  0.25904179196E-02  0.40839705069E-01  0.51100000000E-03 0.  1.
</event>
<event>
 8    1  0.1093753E+005  0.1043930E+01  0.7957747E-01            NaN
         13   -1    0    0    0    0  0.00000000000E+00  0.00000000000E+00  0.74505805969E-08  0.10566000000E+00  0.10566000000E+00 0. -1.
     999900   -1    0    0    0    0 -0.00000000000E+00 -0.00000000000E+00 -0.74505805969E-08  0.93827000000E+00  0.93827000000E+00 0. -1.
     999902    2    1    2    0    0  0.15119864341E-01  0.13142266317E-01  0.95895073511E-02  0.10217199097E+01  0.10214784803E+01 0.  0.
     999903    2    3    3    0    0  0.11652985815E+00  0.14101160052E-01 -0.59634828329E-01  0.13319477497E+00  0.20161467591E-01 0.  0.
         14    1    1    2    0    0 -0.15119864341E-01 -0.13142266317E-01 -0.95895073511E-02  0.22210090339E-01  0.00000000000E+00 0.  1.
     999901    1    3    3    0    0 -0.10140999381E+00 -0.95889373496E-03  0.69224335680E-01  0.88852513469E+00  0.88000000000E+00 0. -1.
        -11    1    4    4    0    0  0.86474682288E-01  0.12982796141E-01 -0.34534685389E-01  0.94017707313E-01  0.51100000000E-03 0. -1.
         11    1    4    4    0    0  0.30055175860E-01  0.11183639102E-02 -0.25100142941E-01  0.39177067661E-01  0.51100000000E-03 0.  1.
</event>
<event>
 8    1  0.1093753E+005  0.1043930E+01  0.7957747E-01            NaN
         13   -1    0    0    0    0  0.00000000000E+00  0.00000000000E+00  0.74505805969E-08  0.10566000000E+00  0.10566000000E+00 0.  1.
     999900   -1    0    0    0    0 -0.00000000000E+00 -0.00000000000E+00 -0.74505805969E-08  0.93827000000E+00  0.93827000000E+00 0.  1.
     999902    2    1    2    0    0  0.37162092842E-02  0.20716734886E-01 -0.17171301383E-03  0.10228818932E+01  0.10226653141E+01 0.  0.
     999903    2    3    3    0    0 -0.41212609549E-02  0.12724522435E+00 -0.41794661878E-01  0.13544614063E+00  0.19761865807E-01 0.  0.
         14    1    1    2    0    0 -0.37162092842E-02 -0.20716734886E-01  0.17171301383E-03  0.21048106830E-01  0.00000000000E+00 0.  1.
     999901    1    3    3    0    0  0.78374702392E-02 -0.10652848946E+00  0.41622948864E-01  0.88743575254E+00  0.88000000000E+00 0. -1.
        -11    1    4    4    0    0  0.62567270844E-02  0.88416328162E-01 -0.28358906646E-01  0.93064936612E-01  0.51100000000E-03 0. -1.
         11    1    4    4    0    0 -0.10377988039E-01  0.38828896185E-01 -0.13435755232E-01  0.42381204021E-01  0.51100000000E-03 0.  1.
</event>
<event>
 8    1  0.1093753E+005  0.1043930E+01  0.7957747E-01            NaN
         13   -1    0    0    0    0  0.00000000000E+00  0.00000000000E+00  0.74505805969E-08  0.10566000000E+00  0.10566000000E+00 0. -1.
     999900   -1    0    0    0    0 -0.00000000000E+00 -0.00000000000E+00 -0.74505805969E-08  0.93827000000E+00  0.93827000000E+00 0.  1.
     999902    2    1    2    0    0 -0.13068019230E-01 -0.13414496801E-01  0.14194693327E-01  0.10204308262E+01  0.10201602128E+01 0.  0.
     999903    2    3    3    0    0 -0.95480050330E-01  0.86330441156E-01 -0.10897939223E-01  0.13061599392E+00  0.19297349770E-01 0.  0.
         14    1    1    2    0    0  0.13068019230E-01  0.13414496801E-01 -0.14194693327E-01  0.23499173808E-01  0.00000000000E+00 0.  1.
     999901    1    3    3    0    0  0.82412031100E-01 -0.99744937956E-01  0.25092632550E-01  0.88981483227E+00  0.88000000000E+00 0. -1.
        -11    1    4    4    0    0 -0.51148885658E-01  0.35146739745E-01 -0.20970248730E-03  0.62062927057E-01  0.51100000000E-03 0. -1.
         11    1    4    4    0    0 -0.44331164671E-01  0.51183701410E-01 -0.10688236735E-01  0.68553066866E-01  0.51100000000E-03 0.  1.
</event>
<event>
 8    1  0.1093753E+005  0.1043930E+01  0.7957747E-01            NaN
         13   -1    0    0    0    0  0.00000000000E+00  0.00000000000E+00  0.74505805969E-08  0.10566000000E+00  0.10566000000E+00 0. -1.
     999900   -1    0    0    0    0 -0.00000000000E+00 -0.00000000000E+00 -0.74505805969E-08  0.93827000000E+00  0.93827000000E+00 0. -1.
     999902    2    1    2    0    0  0.39765504378E-02 -0.24670807169E-01  0.20719745807E-02  0.10188550173E+01  0.10185464111E+01 0.  0.
     999903    2    3    3    0    0  0.62942224627E-01  0.54264158717E-03 -0.11113917468E+00  0.12928802540E+00  0.20036448321E-01 0.  0.
         14    1    1    2    0    0 -0.39765504378E-02  0.24670807169E-01 -0.20719745807E-02  0.25074982720E-01  0.00000000000E+00 0.  1.
     999901    1    3    3    0    0 -0.58965674189E-01 -0.25213448756E-01  0.11321114926E+00  0.88956699188E+00  0.88000000000E+00 0.  1.
        -11    1    4    4    0    0  0.26677602162E-01  0.12008186118E-02 -0.67179567345E-01  0.72294479818E-01  0.51100000000E-03 0.  1.
         11    1    4    4    0    0  0.36264622465E-01 -0.65817702463E-03 -0.43959607336E-01  0.56993545579E-01  0.51100000000E-03 0. -1.
</event>
<event>
 8    1  0.1093753E+005  0.1043930E+01  0.7957747E-01            NaN
         13   -1    0    0    0    0  0.00000000000E+00  0.00000000000E+00  0.74505805969E-08  0.10566000000E+00  0.10566000000E+00 0. -1.
     999900   -1    0    0    0    0 -0.00000000000E+00 -0.00000000000E+00 -0.74505805969E-08  0.93827000000E+00  0.93827000000E+00 0.  1.
     999902    2    1    2    0    0 -0.13190896320E-02  0.16088484640E-01  0.16947656767E-01  0.10205248210E+01  0.10202563932E+01 0.  0.
     999903    2    3    3    0    0 -0.10533088452E+00  0.40257700035E-01  0.67118703889E-01  0.13265110336E+00  0.19393740406E-01 0.  0.
         14    1    1    2    0    0  0.13190896320E-02 -0.16088484640E-01 -0.16947656767E-01  0.23405179028E-01  0.00000000000E+00 0. -1.
     999901    1    3    3    0    0  0.10401179488E+00 -0.24169215395E-01 -0.50171047122E-01  0.88787371761E+00  0.88000000000E+00 0.  1.
        -11    1    4    4    0    0 -0.30473293713E-01  0.15516871001E-01  0.11181960372E-01  0.35981832557E-01  0.51100000000E-03 0.  1.
         11    1    4    4    0    0 -0.74857590804E-01  0.24740829034E-01  0.55936743517E-01  0.96669270808E-01  0.51100000000E-03 0. -1.
</event>
<event>
 7    1  0.1093753E+005  0.1043930E+01  0.7957747E-01            NaN
         13   -1    0    0    0    0  0.00000000000E+00  0.00000000000E+00  0.74505805969E-08  0.10566000000E+00  0.10566000000E+00 0. -1.
     999900   -1    0    0    0    0 -0.00000000000E+00 -0.00000000000E+00 -0.74505805969E-08  0.93827000000E+00  0.93827000000E+00 0. -1.
     999903    2    1    2    0    0  0.83727888162E-02 -0.12509200244E+00  0.67335224614E-01  0.14382280945E+00  0.20805176700E-01 0.  0.
         14    1    1    2    0    0  0.16959065733E-02 -0.10383395600E-02  0.76463285302E-02  0.79006701070E-02  0.00000000000E+00 0. -1.
     999901    1    1    2    0    0 -0.10068695389E-01  0.12613034200E+00 -0.74981553144E-01  0.89220652044E+00  0.88000000000E+00 0.  1.
        -11    1    3    3    0    0  0.68935273579E-02 -0.49236322782E-01  0.37584763089E-01  0.62326653512E-01  0.51100000000E-03 0. -1.
         11    1    3    3    0    0  0.14792614582E-02 -0.75855679663E-01  0.29750461525E-01  0.81496155943E-01  0.51100000000E-03 0.  1.
</event>
<event>
 8    1  0.1093753E+005  0.1043930E+01  0.7957747E-01            NaN
         13   -1    0    0    0    0  0.00000000000E+00  0.00000000000E+00  0.74505805969E-08  0.10566000000E+00  0.10566000000E+00 0.  1.
     999900   -1    0    0    0    0 -0.00000000000E+00 -0.00000000000E+00 -0.74505805969E-08  0.93827000000E+00  0.93827000000E+00 0.  1.
     999902    2    1    2    0    0 -0.17511024662E-01  0.13434810919E-01 -0.84315677012E-02  0.10203032892E+01  0.10200296959E+01 0.  0.
     999903    2    3    3    0    0 -0.40095226437E-01 -0.10579440803E+00 -0.61539833866E-01  0.13038973118E+00  0.20353056078E-01 0.  0.
         14    1    1    2    0    0  0.17511024662E-01 -0.13434810919E-01  0.84315677012E-02  0.23626710796E-01  0.00000000000E+00 0.  1.
     999901    1    3    3    0    0  0.22584201775E-01  0.11922921895E+00  0.53108266164E-01  0.88991355802E+00  0.88000000000E+00 0.  1.
        -11    1    4    4    0    0 -0.37617230521E-01 -0.74667052116E-01 -0.42187256993E-01  0.93649615468E-01  0.51100000000E-03 0. -1.
         11    1    4    4    0    0 -0.24779959158E-02 -0.31127355912E-01 -0.19352576873E-01  0.36740115711E-01  0.51100000000E-03 0.  1.
</event>
<event>
 8    1  0.1093753E+005  0.1043930E+01  0.7957747E-01            NaN
         13   -1    0    0    0    0  0.00000000000E+00  0.00000000000E+00  0.74505805969E-08  0.10566000000E+00  0.10566000000E+00 0. -1.
     999900   -1    0    0    0    0 -0.00000000000E+00 -0.00000000000E+00 -0.74505805969E-08  0.93827000000E+00  0.93827000000E+00 0. -1.
     999902    2    1    2    0    0  0.97933353457E-02  0.19216947169E-01  0.90957726476E-02  0.10205220194E+01  0.10202535266E+01 0.  0.
     999903    2    3    3    0    0 -0.59031440685E-01  0.74355091986E-01 -0.87533428392E-01  0.13085114357E+00  0.21131256319E-01 0.  0.
         14    1    1    2    0    0 -0.97933353457E-02 -0.19216947169E-01 -0.90957726476E-02  0.23407980599E-01  0.00000000000E+00 0.  1.
     999901    1    3    3    0    0  0.68824776031E-01 -0.55138144817E-01  0.96629201040E-01  0.88967087583E+00  0.88000000000E+00 0.  1.
        -11    1    4    4    0    0 -0.14431221152E-01  0.28351262751E-01 -0.19136189053E-01  0.37128278926E-01  0.51100000000E-03 0. -1.
         11    1    4    4    0    0 -0.44600219533E-01  0.46003829235E-01 -0.68397239340E-01  0.93722864643E-01  0.51100000000E-03 0.  1.
</event>
<event>
 8    1  0.1093753E+005  0.1043930E+01  0.7957747E-01            NaN
         13   -1    0    0    0    0  0.00000000000E+00  0.00000000000E+00  0.74505805969E-08  0.10566000000E+00  0.10566000000E+00 0.  1.
     999900   -1    0    0    0    0 -0.00000000000E+00 -0.00000000000E+00 -0.74505805969E-08  0.93827000000E+00  0.93827000000E+00 0.  1.
     999902    2    1    2    0    0 -0.12638463518E-01 -0.12104302577E-01  0.16028389513E-01  0.10201991304E+01  0.10199230910E+01 0.  0.
     999903    2    3    3    0    0 -0.12127603745E+00 -0.49581127878E-01  0.36174498204E-04  0.13258300514E+00  0.20299912378E-01 0.  0.
         14    1    1    2    0    0  0.12638463518E-01  0.12104302577E-01 -0.16028389513E-01  0.23730869587E-01  0.00000000000E+00 0.  1.
     999901    1    3    3    0    0  0.10863757393E+00  0.37476825302E-01  0.15992215015E-01  0.88761612527E+00  0.88000000000E+00 0.  1.
        -11    1    4    4    0    0 -0.16026898360E-01 -0.12257377946E-01  0.50245823769E-02  0.20799334947E-01  0.51100000000E-03 0. -1.
         11    1    4    4    0    0 -0.10524913909E+00 -0.37323749933E-01 -0.49884078787E-02  0.11178367019E+00  0.51100000000E-03 0.  1.
</event>
<event>
 8    1  0.1093753E+005  0.1043930E+01  0.7957747E-01            NaN
         13   -1    0    0    0    0  0.00000000000E+00  0.00000000000E+00  0.74505805969E-08  0.10566000000E+00  0.10566000000E+00 0. -1.
     999900   -1    0    0    0    0 -0.00000000000E+00 -0.00000000000E+00 -0.74505805969E-08  0.93827000000E+00  0.93827000000E+00 0.  1.
     999902    2    1    2    0    0  0.12624723605E-01  0.20035554505E-01 -0.45172997720E-02  0.10198216386E+01  0.10195366406E+01 0.  0.
     999903    2    3    3    0    0 -0.18179943027E-02 -0.11127314984E+00 -0.59752652131E-01  0.12824914462E+00  0.22191094626E-01 0.  0.
         14    1    1    2    0    0 -0.12624723605E-01 -0.20035554505E-01  0.45172997720E-02  0.24108361364E-01  0.00000000000E+00 0. -1.
     999901    1    3    3    0    0  0.14442717908E-01  0.13130870434E+00  0.55235352359E-01  0.89157249402E+00  0.88000000000E+00 0.  1.
        -11    1    4    4    0    0 -0.30495699859E-02 -0.31718962826E-01 -0.65508719609E-02  0.32535634684E-01  0.51100000000E-03 0.  1.
         11    1    4    4    0    0  0.12315756832E-02 -0.79554187012E-01 -0.53201780170E-01  0.95713509935E-01  0.51100000000E-03 0. -1.
</event>
<event>
 8    1  0.1093753E+005  0.1043930E+01  0.7957747E-01            NaN
         13   -1    0    0    0    0  0.00000000000E+00  0.00000000000E+00  0.74505805969E-08  0.10566000000E+00  0.10566000000E+00 0. -1.
     999900   -1    0    0    0    0 -0.00000000000E+00 -0.00000000000E+00 -0.74505805969E-08  0.93827000000E+00  0.93827000000E+00 0. -1.
     999902    2    1    2    0    0 -0.26398655548E-01  0.19777952494E-01 -0.10238571290E-01  0.10093918362E+01  0.10088007703E+01 0.  0.
     999903    2    3    3    0    0  0.44746509134E-01  0.61354784147E-01 -0.92926210279E-01  0.12168269853E+00  0.20118124838E-01 0.  0.
         14    1    1    2    0    0  0.26398655548E-01 -0.19777952494E-01  0.10238571290E-01  0.34538163843E-01  0.00000000000E+00 0. -1.
     999901    1    3    3    0    0 -0.71145164682E-01 -0.41576831653E-01  0.82687638989E-01  0.88770913763E+00  0.88000000000E+00 0.  1.
        -11    1    4    4    0    0  0.72631836086E-02  0.25808946685E-01 -0.34417660224E-01  0.43631319272E-01  0.51100000000E-03 0. -1.
         11    1    4    4    0    0  0.37483325525E-01  0.35545837462E-01 -0.58508550055E-01  0.78051379256E-01  0.51100000000E-03 0.  1.
</event>
<event>
 7    1  0.1093753E+005  0.1043930E+01  0.7957747E-01            NaN
         13   -1    0    0    0    0  0.00000000000E+00  0.00000000000E+00  0.74505805969E-08  0.10566000000E+00  0.10566000000E+00 0. -1.
     999900   -1    0    0    0    0 -0.00000000000E+00 -0.00000000000E+00 -0.74505805969E-08  0.93827000000E+00  0.93827000000E+00 0.  1.
     999903    2    1    2    0    0  0.24647048236E-01 -0.56581959192E-01 -0.87078171527E-01  0.10844226857E+00  0.19186520355E-01 0.  0.
         14    1    1    2    0    0  0.17987645795E-01 -0.40622065422E-01 -0.30977008326E-02  0.44534294099E-01  0.00000000000E+00 0.  1.
     999901    1    1    2    0    0 -0.42634694031E-01  0.97204024615E-01  0.90175872360E-01  0.89095343733E+00  0.88000000000E+00 0. -1.
        -11    1    3    3    0    0  0.11057536504E-01 -0.80593290747E-02 -0.24813333334E-01  0.28340510419E-01  0.51100000000E-03 0.  1.
         11    1    3    3    0    0  0.13589511732E-01 -0.48522630118E-01 -0.62264838194E-01  0.80101758151E-01  0.51100000000E-03 0. -1.
</event>
<event>
 8    1  0.1093753E+005  0.1043930E+01  0.7957747E-01            NaN
         13   -1    0    0    0    0  0.00000000000E+00  0.00000000000E+00  0.74505805969E-08  0.10566000000E+00  0.10566000000E+00 0. -1.
     999900   -1    0    0    0    0 -0.00000000000E+00 -0.00000000000E+00 -0.74505805969E-08  0.93827000000E+00  0.93827000000E+00 0.  1.
     999902    2    1    2    0    0  0.29340969515E-01 -0.47252176038E-02  0.22558458464E-02  0.10141254867E+01  0.10136874241E+01 0.  0.
     999903    2    3    3    0    0  0.65522425230E-01  0.94458461498E-01  0.49056460237E-01  0.12658010900E+00  0.20009961204E-01 0.  0.
         14    1    1    2    0    0 -0.29340969515E-01  0.47252176038E-02 -0.22558458464E-02  0.29804513315E-01  0.00000000000E+00 0. -1.
     999901    1    3    3    0    0 -0.36181455715E-01 -0.99183679102E-01 -0.46800614390E-01  0.88754537768E+00  0.88000000000E+00 0.  1.
        -11    1    4    4    0    0  0.34692115971E-01  0.65141962813E-01  0.26462066743E-01  0.78406124295E-01  0.51100000000E-03 0.  1.
         11    1    4    4    0    0  0.30830309260E-01  0.29316498685E-01  0.22594393494E-01  0.48173984707E-01  0.51100000000E-03 0. -1.
</event>
<event>
 8    1  0.1093753E+005  0.1043930E+01  0.7957747E-01            NaN
         13   -1    0    0    0    0  0.00000000000E+00  0.00000000000E+00  0.74505805969E-08  0.10566000000E+00  0.10566000000E+00 0. -1.
     999900   -1    0    0    0    0 -0.00000000000E+00 -0.00000000000E+00 -0.74505805969E-08  0.93827000000E+00  0.93827000000E+00 0.  1.
     999902    2    1    2    0    0  0.22355969218E-01 -0.62248533298E-02 -0.78700376496E-03  0.10207102340E+01  0.10204460908E+01 0.  0.
     999903    2    3    3    0    0 -0.66549425382E-01  0.44749720511E-01 -0.99398671649E-01  0.12929179273E+00  0.20122331827E-01 0.  0.
         14    1    1    2    0    0 -0.22355969218E-01  0.62248533298E-02  0.78700376496E-03  0.23219766011E-01  0.00000000000E+00 0. -1.
     999901    1    3    3    0    0  0.88905394601E-01 -0.50974573841E-01  0.98611667884E-01  0.89141844126E+00  0.88000000000E+00 0. -1.
        -11    1    4    4    0    0 -0.46493329328E-01  0.19551079597E-01 -0.58887710561E-01  0.77536429899E-01  0.51100000000E-03 0.  1.
         11    1    4    4    0    0 -0.20056096055E-01  0.25198640914E-01 -0.40510961088E-01  0.51755362835E-01  0.51100000000E-03 0. -1.
</event>
<event>
 8    1  0.1093753E+005  0.1043930E+01  0.7957747E-01            NaN
         13   -1    0    0    0    0  0.00000000000E+00  0.00000000000E+00  0.74505805969E-08  0.10566000000E+00  0.10566000000E+00 0. -1.
     999900   -1    0    0    0    0 -0.00000000000E+00 -0.00000000000E+00 -0.74505805969E-08  0.93827000000E+00  0.93827000000E+00 0.  1.
     999902    2    1    2    0    0  0.23370440235E-01  0.52349589956E-03  0.48934603690E-02  0.10200470044E+01  0.10197673723E+01 0.  0.
     999903    2    3    3    0    0 -0.11145411782E+00 -0.40866851791E-01 -0.41835116789E-01  0.12759286985E+00  0.20919930328E-01 0.  0.
         14    1    1    2    0    0 -0.23370440235E-01 -0.52349589956E-03 -0.48934603690E-02  0.23882995606E-01  0.00000000000E+00 0.  1.
     999901    1    3    3    0    0  0.13482455806E+00  0.41390347691E-01  0.46728577158E-01  0.89245413454E+00  0.88000000000E+00 0.  1.
        -11    1    4    4    0    0 -0.60389255860E-01 -0.33116175865E-01 -0.24794858915E-01  0.73202387098E-01  0.51100000000E-03 0.  1.
         11    1    4    4    0    0 -0.51064861965E-01 -0.77506759258E-02 -0.17040257874E-01  0.54390482754E-01  0.51100000000E-03 0. -1.
</event>
<event>
 8    1  0.1093753E+005  0.1043930E+01  0.7957747E-01            NaN
         13   -1    0    0    0    0  0.00000000000E+00  0.00000000000E+00  0.74505805969E-08  0.10566000000E+00  0.10566000000E+00 0.  1.
     999900   -1    0    0    0    0 -0.00000000000E+00 -0.00000000000E+00 -0.74505805969E-08  0.93827000000E+00  0.93827000000E+00 0.  1.
     999902    2    1    2    0    0  0.21954119982E-01  0.89041668230E-02 -0.10418907019E-02  0.10202160145E+01  0.10199403724E+01 0.  0.
     999903    2    3    3    0    0  0.12874315297E+00 -0.85461929183E-02  0.26629525904E-01  0.13315676063E+00  0.19332728739E-01 0.  0.
         14    1    1    2    0    0 -0.21954119982E-01 -0.89041668230E-02  0.10418907019E-02  0.23713985477E-01  0.00000000000E+00 0. -1.
     999901    1    3    3    0    0 -0.10678903299E+00  0.17450359741E-01 -0.27671416606E-01  0.88705925389E+00  0.88000000000E+00 0.  1.
        -11    1    4    4    0    0  0.10160841143E+00 -0.24030269073E-02  0.13996902241E-01  0.10259735964E+00  0.51100000000E-03 0. -1.
         11    1    4    4    0    0  0.27134741546E-01 -0.61431660111E-02  0.12632623663E-01  0.30559400992E-01  0.51100000000E-03 0.  1.
</event>
<event>
 8    1  0.1093753E+005  0.1043930E+01  0.7957747E-01            NaN
         13   -1    0    0    0    0  0.00000000000E+00  0.00000000000E+00  0.74505805969E-08  0.10566000000E+00  0.10566000000E+00 0. -1.
     999900   -1    0    0    0    0 -0.00000000000E+00 -0.00000000000E+00 -0.74505805969E-08  0.93827000000E+00  0.93827000000E+00 0.  1.
     999902    2    1    2    0    0  0.10982633405E-01  0.17882879221E-01  0.11095820652E-01  0.10201911533E+01  0.10199149261E+01 0.  0.
     999903    2    3    3    0    0 -0.23351427468E-01 -0.54039089557E-01 -0.11192484661E+00  0.12806690082E+00  0.20210082450E-01 0.  0.
         14    1    1    2    0    0 -0.10982633405E-01 -0.17882879221E-01 -0.11095820652E-01  0.23738846680E-01  0.00000000000E+00 0. -1.
     999901    1    3    3    0    0  0.34334060873E-01  0.71921968778E-01  0.12302066726E+00  0.89212425250E+00  0.88000000000E+00 0. -1.
        -11    1    4    4    0    0 -0.24349935038E-01 -0.39010128190E-01 -0.72456508417E-01  0.85819089780E-01  0.51100000000E-03 0.  1.
         11    1    4    4    0    0  0.99850757000E-03 -0.15028961367E-01 -0.39468338189E-01  0.42247811039E-01  0.51100000000E-03 0. -1.
</event>
<event>
 8    1  0.1093753E+005  0.1043930E+01  0.7957747E-01            NaN
         13   -1    0    0    0    0  0.00000000000E+00  0.00000000000E+00  0.74505805969E-08  0.10566000000E+00  0.10566000000E+00 0.  1.
     999900   -1    0    0    0    0 -0.00000000000E+00 -0.00000000000E+00 -0.74505805969E-08  0.93827000000E+00  0.93827000000E+00 0.  1.
     999902    2    1    2    0    0 -0.35186315891E-02  0.10084748848E-01 -0.21768127666E-01  0.10196826432E+01  0.10193943097E+01 0.  0.
     999903    2    3    3    0    0  0.84783856661E-01  0.95678345453E-01  0.15515714045E-01  0.13034936597E+00  0.20188404791E-01 0.  0.
         14    1    1    2    0    0  0.35186315891E-02 -0.10084748848E-01  0.21768127666E-01  0.24247356756E-01  0.00000000000E+00 0.  1.
     999901    1    3    3    0    0 -0.88302488251E-01 -0.85593596605E-01 -0.37283841710E-01  0.88933327727E+00  0.88000000000E+00 0.  1.
        -11    1    4    4    0    0  0.18900436725E-01  0.33625245293E-01  0.89738002111E-02  0.39606487356E-01  0.51100000000E-03 0.  1.
         11    1    4    4    0    0  0.65883419937E-01  0.62053100159E-01  0.65419138335E-02  0.90742878616E-01  0.51100000000E-03 0. -1.
</event>
<event>
 8    1  0.1093753E+005  0.1043930E+01  0.7957747E-01            NaN
         13   -1    0    0    0    0  0.00000000000E+00  0.00000000000E+00  0.74505805969E-08  0.10566000000E+00  0.10566000000E+00 0. -1.
     999900   -1    0    0    0    0 -0.00000000000E+00 -0.00000000000E+00 -0.74505805969E-08  0.93827000000E+00  0.93827000000E+00 0. -1.
     999902    2    1    2    0    0  0.16760880597E-01  0.15956734300E-01  0.38076597635E-02  0.10204770096E+01  0.10202074712E+01 0.  0.
     999903    2    3    3    0    0 -0.29340834413E-01 -0.10885191111E+00 -0.57934687346E-01  0.12833650295E+00  0.20104896799E-01 0.  0.
         14    1    1    2    0    0 -0.16760880597E-01 -0.15956734300E-01 -0.38076597635E-02  0.23452990444E-01  0.00000000000E+00 0.  1.
     999901    1    3    3    0    0  0.46101715010E-01  0.12480864541E+00  0.61742347110E-01  0.89214050660E+00  0.88000000000E+00 0. -1.
        -11    1    4    4    0    0 -0.60817653195E-02 -0.51241004091E-01 -0.18870612188E-01  0.54945331877E-01  0.51100000000E-03 0.  1.
         11    1    4    4    0    0 -0.23259069093E-01 -0.57610907021E-01 -0.39064075159E-01  0.73391171076E-01  0.51100000000E-03 0. -1.
</event>
<event>
 8    1  0.1093753E+005  0.1043930E+01  0.7957747E-01            NaN
         13   -1    0    0    0    0  0.00000000000E+00  0.00000000000E+00  0.74505805969E-08  0.10566000000E+00  0.10566000000E+00 0. -1.
     999900   -1    0    0    0    0 -0.00000000000E+00 -0.00000000000E+00 -0.74505805969E-08  0.93827000000E+00  0.93827000000E+00 0.  1.
     999902    2    1    2    0    0  0.12798252713E-01 -0.12834782477E-01 -0.16104912059E-01  0.10196834517E+01  0.10193951376E+01 0.  0.
     999903    2    3    3    0    0 -0.10347950255E+00 -0.35660631426E-01 -0.67236165264E-01  0.13027019518E+00  0.21677955467E-01 0.  0.
         14    1    1    2    0    0 -0.12798252713E-01  0.12834782477E-01  0.16104912059E-01  0.24246548335E-01  0.00000000000E+00 0. -1.
     999901    1    3    3    0    0  0.11627775526E+00  0.22825848949E-01  0.51131253205E-01  0.88941325648E+00  0.88000000000E+00 0. -1.
        -11    1    4    4    0    0 -0.62257563423E-01 -0.23491972445E-01 -0.28438107329E-01  0.72366180238E-01  0.51100000000E-03 0.  1.
         11    1    4    4    0    0 -0.41221939122E-01 -0.12168658981E-01 -0.38798057935E-01  0.57904014947E-01  0.51100000000E-03 0. -1.
</event>
<event>
 8    1  0.1093753E+005  0.1043930E+01  0.7957747E-01            NaN
         13   -1    0    0    0    0  0.00000000000E+00  0.00000000000E+00  0.74505805969E-08  0.10566000000E+00  0.10566000000E+00 0.  1.
     999900   -1    0    0    0    0 -0.00000000000E+00 -0.00000000000E+00 -0.74505805969E-08  0.93827000000E+00  0.93827000000E+00 0. -1.
     999902    2    1    2    0    0 -0.22207208407E-01  0.80408952786E-02  0.19724160936E-02  0.10202296513E+01  0.10199543298E+01 0.  0.
     999903    2    3    3    0    0 -0.12698518527E+00  0.21257304973E-01  0.29059719851E-01  0.13350149685E+00  0.20026783325E-01 0.  0.
         14    1    1    2    0    0  0.22207208407E-01 -0.80408952786E-02 -0.19724160936E-02  0.23700348676E-01  0.00000000000E+00 0.  1.
     999901    1    3    3    0    0  0.10477797686E+00 -0.13216409694E-01 -0.27087303758E-01  0.88672815448E+00  0.88000000000E+00 0. -1.
        -11    1    4    4    0    0 -0.12316368182E+00  0.24030747724E-01  0.28771921334E-01  0.12874336462E+00  0.51100000000E-03 0. -1.
         11    1    4    4    0    0 -0.38215034469E-02 -0.27734427510E-02  0.28779851757E-03  0.47581322254E-02  0.51100000000E-03 0.  1.
</event>
<event>
 8    1  0.1093753E+005  0.1043930E+01  0.7957747E-01            NaN
         13   -1    0    0    0    0  0.00000000000E+00  0.00000000000E+00  0.74505805969E-08  0.10566000000E+00  0.10566000000E+00 0.  1.
     999900   -1    0    0    0    0 -0.00000000000E+00 -0.00000000000E+00 -0.74505805969E-08  0.93827000000E+00  0.93827000000E+00 0.  1.
     999902    2    1    2    0    0  0.21031711485E-01  0.12777012335E-01  0.24339467403E-01  0.10093179413E+01  0.10087242993E+01 0.  0.
     999903    2    3    3    0    0 -0.81125845640E-01  0.62395698950E-01 -0.56175051711E-01  0.11837418983E+00  0.19549585810E-01 0.  0.
         14    1    1    2    0    0 -0.21031711485E-01 -0.12777012335E-01 -0.24339467403E-01  0.34612058674E-01  0.00000000000E+00 0. -1.
     999901    1    3    3    0    0  0.10215755712E+00 -0.49618686616E-01  0.80514519114E-01  0.89094375149E+00  0.88000000000E+00 0.  1.
        -11    1    4    4    0    0 -0.61521735650E-01  0.56489137778E-01 -0.42195574467E-01  0.93577103342E-01  0.51100000000E-03 0.  1.
         11    1    4    4    0    0 -0.19604109989E-01  0.59065611723E-02 -0.13979477244E-01  0.24797086489E-01  0.51100000000E-03 0. -1.
</event>
<event>
 8    1  0.1093753E+005  0.1043930E+01  0.7957747E-01            NaN
         13   -1    0    0    0    0  0.00000000000E+00  0.00000000000E+00  0.74505805969E-08  0.10566000000E+00  0.10566000000E+00 0. -1.
     999900   -1    0    0    0    0 -0.00000000000E+00 -0.00000000000E+00 -0.74505805969E-08  0.93827000000E+00  0.93827000000E+00 0. -1.
     999902    2    1    2    0    0  0.20414968361E-01  0.56423417781E-02 -0.10156920262E-01  0.10204402153E+01  0.10201698207E+01 0.  0.
     999903    2    3    3    0    0 -0.42449021786E-01  0.79791286208E-01 -0.93190501839E-01  0.13120204540E+00  0.18998375696E-01 0.  0.
         14    1    1    2    0    0 -0.20414968361E-01 -0.56423417781E-02  0.10156920262E-01  0.23489784655E-01  0.00000000000E+00 0. -1.
     999901    1    3    3    0    0  0.62863990146E-01 -0.74148944430E-01  0.83033581576E-01  0.88923816994E+00  0.88000000000E+00 0.  1.
        -11    1    4    4    0    0 -0.29065028766E-01  0.41490364868E-01 -0.61744342973E-01  0.79867711150E-01  0.51100000000E-03 0. -1.
         11    1    4    4    0    0 -0.13383993020E-01  0.38300921339E-01 -0.31446158866E-01  0.51334334251E-01  0.51100000000E-03 0.  1.
</event>
<event>
 8    1  0.1093753E+005  0.1043930E+01  0.7957747E-01            NaN
         13   -1    0    0    0    0  0.00000000000E+00  0.00000000000E+00  0.74505805969E-08  0.10566000000E+00  0.10566000000E+00 0. -1.
     999900   -1    0    0    0    0 -0.00000000000E+00 -0.00000000000E+00 -0.74505805969E-08  0.93827000000E+00  0.93827000000E+00 0. -1.
     999902    2    1    2    0    0 -0.19176543918E-01 -0.15300717425E-01 -0.73248577043E-02  0.10183271617E+01  0.10180052568E+01 0.  0.
     999903    2    3    3    0    0 -0.52982546986E-01  0.14537515263E-01 -0.11532539141E+00  0.13057872813E+00  0.27062311438E-01 0.  0.
         14    1    1    2    0    0  0.19176543918E-01  0.15300717425E-01  0.73248577043E-02  0.25602838333E-01  0.00000000000E+00 0. -1.
     999901    1    3    3    0    0  0.33806003068E-01 -0.29838232688E-01  0.10800053370E+00  0.88774843354E+00  0.88000000000E+00 0.  1.
        -11    1    4    4    0    0 -0.22801138704E-01 -0.40873616876E-02 -0.28120765908E-01  0.36436754082E-01  0.51100000000E-03 0.  1.
         11    1    4    4    0    0 -0.30181408283E-01  0.18624876951E-01 -0.87204625500E-01  0.94141974044E-01  0.51100000000E-03 0. -1.
</event>
<event>
 8    1  0.1093753E+005  0.1043930E+01  0.7957747E-01            NaN
         13   -1    0    0    0    0  0.00000000000E+00  0.00000000000E+00  0.74505805969E-08  0.10566000000E+00  0.10566000000E+00 0.  1.
     999900   -1    0    0    0    0 -0.00000000000E+00 -0.00000000000E+00 -0.74505805969E-08  0.93827000000E+00  0.93827000000E+00 0.  1.
     999902    2    1    2    0    0  0.16921572163E-01  0.13574887544E-01 -0.10704265468E-01  0.10197391241E+01  0.10194521484E+01 0.  0.
     999903    2    3    3    0    0 -0.10349333227E+00  0.60189025238E-01  0.42685918921E-01  0.12871547751E+00  0.20297731204E-01 0.  0.
         14    1    1    2    0    0 -0.16921572163E-01 -0.13574887544E-01  0.10704265468E-01  0.24190875873E-01  0.00000000000E+00 0. -1.
     999901    1    3    3    0    0  0.12041490444E+00 -0.46614137695E-01 -0.53390184389E-01  0.89102364662E+00  0.88000000000E+00 0.  1.
        -11    1    4    4    0    0 -0.41335149730E-01  0.12982232652E-01  0.16990114544E-01  0.46540929095E-01  0.51100000000E-03 0.  1.
         11    1    4    4    0    0 -0.62158182543E-01  0.47206792587E-01  0.25695804378E-01  0.82174548414E-01  0.51100000000E-03 0. -1.
</event>
<event>
 8    1  0.1093753E+005  0.1043930E+01  0.7957747E-01            NaN
         13   -1    0    0    0    0  0.00000000000E+00  0.00000000000E+00  0.74505805969E-08  0.10566000000E+00  0.10566000000E+00 0. -1.
     999900   -1    0    0    0    0 -0.00000000000E+00 -0.00000000000E+00 -0.74505805969E-08  0.93827000000E+00  0.93827000000E+00 0. -1.
     999902    2    1    2    0    0  0.12299511247E-01  0.32580762089E-02  0.20262287422E-01  0.10200040031E+01  0.10197233512E+01 0.  0.
     999903    2    3    3    0    0  0.69405305685E-01  0.84818459413E-01  0.72152874799E-01  0.13287052894E+00  0.20911064159E-01 0.  0.
         14    1    1    2    0    0 -0.12299511247E-01 -0.32580762089E-02 -0.20262287422E-01  0.23925996930E-01  0.00000000000E+00 0.  1.
     999901    1    3    3    0    0 -0.57105794438E-01 -0.81560383205E-01 -0.51890587376E-01  0.88713347413E+00  0.88000000000E+00 0. -1.
        -11    1    4    4    0    0  0.46780296236E-01  0.46126935240E-01  0.51695649842E-01  0.83598992842E-01  0.51100000000E-03 0. -1.
         11    1    4    4    0    0  0.22625009448E-01  0.38691524173E-01  0.20457224957E-01  0.49271536097E-01  0.51100000000E-03 0.  1.
</event>
<event>
 8    1  0.1093753E+005  0.1043930E+01  0.7957747E-01            NaN
         13   -1    0    0    0    0  0.00000000000E+00  0.00000000000E+00  0.74505805969E-08  0.10566000000E+00  0.10566000000E+00 0. -1.
     999900   -1    0    0    0    0 -0.00000000000E+00 -0.00000000000E+00 -0.74505805969E-08  0.93827000000E+00  0.93827000000E+00 0.  1.
     999902    2    1    2    0    0  0.72537590752E-02 -0.16879151898E-01  0.14871972619E-01  0.10202931991E+01  0.10200193693E+01 0.  0.
     999903    2    3    3    0    0  0.92140744639E-02 -0.10709719901E+00  0.76606123073E-01  0.13352702683E+00  0.20155882470E-01 0.  0.
         14    1    1    2    0    0 -0.72537590752E-02  0.16879151898E-01 -0.14871972619E-01  0.23636800948E-01  0.00000000000E+00 0.  1.
     999901    1    3    3    0    0 -0.19603153887E-02  0.90218047113E-01 -0.61734150454E-01  0.88676617222E+00  0.88000000000E+00 0.  1.
        -11    1    4    4    0    0 -0.95400800703E-03 -0.37207317802E-01  0.16218891071E-01  0.40603056262E-01  0.51100000000E-03 0. -1.
         11    1    4    4    0    0  0.10168082471E-01 -0.69889881209E-01  0.60387232002E-01  0.92923970570E-01  0.51100000000E-03 0.  1.
</event>
<event>
 8    1  0.1093753E+005  0.1043930E+01  0.7957747E-01            NaN
         13   -1    0    0    0    0  0.00000000000E+00  0.00000000000E+00  0.74505805969E-08  0.10566000000E+00  0.10566000000E+00 0. -1.
     999900   -1    0    0    0    0 -0.00000000000E+00 -0.00000000000E+00 -0.74505805969E-08  0.93827000000E+00  0.93827000000E+00 0.  1.
     999902    2    1    2    0    0  0.92625519737E-02  0.21780418572E-01 -0.15004252144E-03  0.10202613707E+01  0.10199867942E+01 0.  0.
     999903    2    3    3    0    0 -0.12480694150E+00 -0.13916616187E-01 -0.22380403136E-01  0.12911430294E+00  0.19979387537E-01 0.  0.
         14    1    1    2    0    0 -0.92625519737E-02 -0.21780418572E-01  0.15004252144E-03  0.23668629343E-01  0.00000000000E+00 0. -1.
     999901    1    3    3    0    0  0.13406949347E+00  0.35697034759E-01  0.22230360614E-01  0.89114706772E+00  0.88000000000E+00 0.  1.
        -11    1    4    4    0    0 -0.56013896971E-01 -0.14976175364E-01 -0.15164493715E-01  0.59933842468E-01  0.51100000000E-03 0.  1.
         11    1    4    4    0    0 -0.68793044528E-01  0.10595591766E-02 -0.72159094208E-02  0.69180460470E-01  0.51100000000E-03 0. -1.
</event>
<event>
 8    1  0.1093753E+005  0.1043930E+01  0.7957747E-01            NaN
         13   -1    0    0    0    0  0.00000000000E+00  0.00000000000E+00  0.74505805969E-08  0.10566000000E+00  0.10566000000E+00 0.  1.
     999900   -1    0    0    0    0 -0.00000000000E+00 -0.00000000000E+00 -0.74505805969E-08  0.93827000000E+00  0.93827000000E+00 0.  1.
     999902    2    1    2    0    0  0.17242656986E-01  0.16110801713E-01 -0.25850910972E-02  0.10201907951E+01  0.10199145595E+01 0.  0.
     999903    2    3    3    0    0  0.10764241642E+00 -0.13141240203E-01  0.72408891973E-01  0.13190486371E+00  0.19906366528E-01 0.  0.
         14    1    1    2    0    0 -0.17242656986E-01 -0.16110801713E-01  0.25850910972E-02  0.23739204868E-01  0.00000000000E+00 0. -1.
     999901    1    3    3    0    0 -0.90399759431E-01  0.29252041916E-01 -0.74993983070E-01  0.88828593142E+00  0.88000000000E+00 0.  1.
        -11    1    4    4    0    0  0.85541280862E-01 -0.92290981739E-02  0.66349953553E-01  0.10865111340E+00  0.51100000000E-03 0.  1.
         11    1    4    4    0    0  0.22101135554E-01 -0.39121420291E-02  0.60589384198E-02  0.23253750317E-01  0.51100000000E-03 0. -1.
</event>
<event>
 8    1  0.1093753E+005  0.1043930E+01  0.7957747E-01            NaN
         13   -1    0    0    0    0  0.00000000000E+00  0.00000000000E+00  0.74505805969E-08  0.10566000000E+00  0.10566000000E+00 0.  1.
     999900   -1    0    0    0    0 -0.00000000000E+00 -0.00000000000E+00 -0.74505805969E-08  0.93827000000E+00  0.93827000000E+00 0.  1.
     999902    2    1    2    0    0  0.22404320994E-02  0.17731431783E-01  0.14997155235E-01  0.10205989504E+01  0.10203322399E+01 0.  0.
     999903    2    3    3    0    0 -0.16673063161E-01  0.10185510754E+00  0.82792117363E-01  0.13378968682E+00  0.19816448603E-01 0.  0.
         14    1    1    2    0    0 -0.22404320994E-02 -0.17731431783E-01 -0.14997155235E-01  0.23331049574E-01  0.00000000000E+00 0. -1.
     999901    1    3    3    0    0  0.18913495260E-01 -0.84123675757E-01 -0.67794962128E-01  0.88680926361E+00  0.88000000000E+00 0. -1.
        -11    1    4    4    0    0 -0.24384137086E-02  0.35006894094E-01  0.17297932596E-01  0.39126820579E-01  0.51100000000E-03 0. -1.
         11    1    4    4    0    0 -0.14234649452E-01  0.66848213445E-01  0.65494184767E-01  0.94662866242E-01  0.51100000000E-03 0.  1.
</event>
<event>
 8    1  0.1093753E+005  0.1043930E+01  0.7957747E-01            NaN
         13   -1    0    0    0    0  0.00000000000E+00  0.00000000000E+00  0.74505805969E-08  0.10566000000E+00  0.10566000000E+00 0. -1.
     999900   -1    0    0    0    0 -0.00000000000E+00 -0.00000000000E+00 -0.74505805969E-08  0.93827000000E+00  0.93827000000E+00 0. -1.
     999902    2    1    2    0    0  0.18050933479E-01 -0.72536069512E-02  0.12780323540E-01  0.10206536669E+01  0.10203882203E+01 0.  0.
     999903    2    3    3    0    0 -0.40398045133E-01 -0.10148817689E+00 -0.62748148277E-01  0.13048458895E+00  0.34015375054E-01 0.  0.
         14    1    1    2    0    0 -0.18050933479E-01  0.72536069512E-02 -0.12780323540E-01  0.23276333110E-01  0.00000000000E+00 0.  1.
     999901    1    3    3    0    0  0.58448978612E-01  0.94234569944E-01  0.75528471817E-01  0.89016907794E+00  0.88000000000E+00 0.  1.
        -11    1    4    4    0    0  0.20103059814E-02 -0.23248946495E-01 -0.23814453476E-01  0.33345826705E-01  0.51100000000E-03 0.  1.
         11    1    4    4    0    0 -0.42408351114E-01 -0.78239230400E-01 -0.38933694801E-01  0.97138762240E-01  0.51100000000E-03 0. -1.
</event>
<event>
 7    1  0.1093753E+005  0.1043930E+01  0.7957747E-01            NaN
         13   -1    0    0    0    0  0.00000000000E+00  0.00000000000E+00  0.74505805969E-08  0.10566000000E+00  0.10566000000E+00 0. -1.
     999900   -1    0    0    0    0 -0.00000000000E+00 -0.00000000000E+00 -0.74505805969E-08  0.93827000000E+00  0.93827000000E+00 0.  1.
     999902    2    1    2    0    0 -0.13644691851E-01 -0.10372422714E-01 -0.16784371163E-01  0.10199408382E+01  0.10196586848E+01 0.  0.
         14    1    1    2    0    0  0.13644691851E-01  0.10372422714E-01  0.16784371163E-01  0.23989161803E-01  0.00000000000E+00 0. -1.
     999901    1    3    3    0    0 -0.12791360579E+00 -0.67476447083E-02 -0.47345901556E-01  0.89053301772E+00  0.88000000000E+00 0.  1.
        -11    1    3    3    0    0  0.91112079001E-01  0.19223264972E-01  0.24816046954E-01  0.96369300939E-01  0.51100000000E-03 0.  1.
         11    1    3    3    0    0  0.23156834939E-01 -0.22848042978E-01  0.57454834387E-02  0.33038519538E-01  0.51100000000E-03 0. -1.
</event>
<event>
 8    1  0.1093753E+005  0.1043930E+01  0.7957747E-01            NaN
         13   -1    0    0    0    0  0.00000000000E+00  0.00000000000E+00  0.74505805969E-08  0.10566000000E+00  0.10566000000E+00 0. -1.
     999900   -1    0    0    0    0 -0.00000000000E+00 -0.00000000000E+00 -0.74505805969E-08  0.93827000000E+00  0.93827000000E+00 0. -1.
     999902    2    1    2    0    0 -0.22878277200E-01  0.35973736795E-02 -0.99940160629E-03  0.10207490710E+01  0.10204858208E+01 0.  0.
     999903    2    3    3    0    0  0.75081557462E-01 -0.29608183839E-01 -0.97086021031E-01  0.12949637021E+00  0.28805027291E-01 0.  0.
         14    1    1    2    0    0  0.22878277200E-01 -0.35973736795E-02  0.99940160629E-03  0.23180928984E-01  0.00000000000E+00 0.  1.
     999901    1    3    3    0    0 -0.97959834661E-01  0.33205557519E-01  0.96086619425E-01  0.89125270080E+00  0.88000000000E+00 0. -1.
        -11    1    4    4    0    0  0.30523783474E-01  0.13807596039E-02 -0.44029144526E-01  0.53595098128E-01  0.51100000000E-03 0. -1.
         11    1    4    4    0    0  0.44557773988E-01 -0.30988943443E-01 -0.53056876505E-01  0.75901272084E-01  0.51100000000E-03 0.  1.
</event>
<event>
 8    1  0.1093753E+005  0.1043930E+01  0.7957747E-01            NaN
         13   -1    0    0    0    0  0.00000000000E+00  0.00000000000E+00  0.74505805969E-08  0.10566000000E+00  0.10566000000E+00 0.  1.
     999900   -1    0    0    0    0 -0.00000000000E+00 -0.00000000000E+00 -0.74505805969E-08  0.93827000000E+00  0.93827000000E+00 0. -1.
     999902    2    1    2    0    0 -0.11998134873E-01 -0.18748262966E-01  0.95208521835E-02  0.10197205136E+01  0.10194330908E+01 0.  0.
     999903    2    3    3    0    0 -0.47866143804E-01  0.43606078553E-02  0.12086651571E+00  0.13167862791E+00  0.20502775534E-01 0.  0.
         14    1    1    2    0    0  0.11998134873E-01  0.18748262966E-01 -0.95208521835E-02  0.24209486384E-01  0.00000000000E+00 0. -1.
     999901    1    3    3    0    0  0.35868008931E-01 -0.23108870822E-01 -0.11134566353E+00  0.88804188570E+00  0.88000000000E+00 0. -1.
        -11    1    4    4    0    0 -0.44614030270E-01  0.19757488387E-02  0.11918803264E+00  0.12728064867E+00  0.51100000000E-03 0.  1.
         11    1    4    4    0    0 -0.32521135342E-02  0.23848590165E-02  0.16784830703E-02  0.43979792389E-02  0.51100000000E-03 0. -1.
</event>
<event>
 8    1  0.1093753E+005  0.1043930E+01  0.7957747E-01            NaN
         13   -1    0    0    0    0  0.00000000000E+00  0.00000000000E+00  0.74505805969E-08  0.10566000000E+00  0.10566000000E+00 0.  1.
     999900   -1    0    0    0    0 -0.00000000000E+00 -0.00000000000E+00 -0.74505805969E-08  0.93827000000E+00  0.93827000000E+00 0. -1.
     999902    2    1    2    0    0  0.16232312288E-02  0.68200593286E-02 -0.15283124779E-01  0.10271156611E+01  0.10269780228E+01 0.  0.
     999903    2    3    3    0    0 -0.24770909001E-01 -0.10813413800E+00  0.73823963519E-01  0.13478657872E+00  0.20269545622E-01 0.  0.
         14    1    1    2    0    0 -0.16232312288E-02 -0.68200593286E-02  0.15283124779E-01  0.16814338877E-01  0.00000000000E+00 0.  1.
     999901    1    3    3    0    0  0.26394140230E-01  0.11495419733E+00 -0.89107088298E-01  0.89232908241E+00  0.88000000000E+00 0.  1.
        -11    1    4    4    0    0 -0.25942591945E-01 -0.80641016748E-01  0.49885499933E-01  0.98309795460E-01  0.51100000000E-03 0. -1.
         11    1    4    4    0    0  0.11716829435E-02 -0.27493121249E-01  0.23938463586E-01  0.36476783257E-01  0.51100000000E-03 0.  1.
</event>
<event>
 8    1  0.1093753E+005  0.1043930E+01  0.7957747E-01            NaN
         13   -1    0    0    0    0  0.00000000000E+00  0.00000000000E+00  0.74505805969E-08  0.10566000000E+00  0.10566000000E+00 0. -1.
     999900   -1    0    0    0    0 -0.00000000000E+00 -0.00000000000E+00 -0.74505805969E-08  0.93827000000E+00  0.93827000000E+00 0.  1.
     999902    2    1    2    0    0 -0.77300655635E-02  0.20559099744E-02  0.22074947891E-01  0.10204505621E+01  0.10201804084E+01 0.  0.
     999903    2    3    3    0    0 -0.39541031737E-01 -0.77046411153E-02  0.12592504246E+00  0.13371945965E+00  0.20023058801E-01 0.  0.
         14    1    1    2    0    0  0.77300655635E-02 -0.20559099744E-02 -0.22074947891E-01  0.23479437894E-01  0.00000000000E+00 0.  1.
     999901    1    3    3    0    0  0.31810966173E-01  0.97605510897E-02 -0.10385009457E+00  0.88673110246E+00  0.88000000000E+00 0.  1.
        -11    1    4    4    0    0 -0.12991155547E-01 -0.10186608296E-02  0.72730057001E-01  0.73889986498E-01  0.51100000000E-03 0.  1.
         11    1    4    4    0    0 -0.26549876190E-01 -0.66859802857E-02  0.53194985460E-01  0.59829473149E-01  0.51100000000E-03 0. -1.
</event>
<event>
 8    1  0.1093753E+005  0.1043930E+01  0.7957747E-01            NaN
         13   -1    0    0    0    0  0.00000000000E+00  0.00000000000E+00  0.74505805969E-08  0.10566000000E+00  0.10566000000E+00 0. -1.
     999900   -1    0    0    0    0 -0.00000000000E+00 -0.00000000000E+00 -0.74505805969E-08  0.93827000000E+00  0.93827000000E+00 0. -1.
     999902    2    1    2    0    0  0.10912995587E-01  0.20489161864E-01 -0.53873336434E-02  0.10200988735E+01  0.10198204691E+01 0.  0.
     999903    2    3    3    0    0 -0.62162999877E-01 -0.52974846117E-01  0.96344674151E-01  0.12819839531E+00  0.21953574831E-01 0.  0.
         14    1    1    2    0    0 -0.10912995587E-01 -0.20489161864E-01  0.53873336434E-02  0.23831126502E-01  0.00000000000E+00 0.  1.
     999901    1    3    3    0    0  0.73075995465E-01  0.73464007981E-01 -0.10173200779E+00  0.89190047819E+00  0.88000000000E+00 0. -1.
        -11    1    4    4    0    0 -0.31559168194E-01 -0.15787042684E-01  0.30673447871E-01  0.46758243542E-01  0.51100000000E-03 0. -1.
         11    1    4    4    0    0 -0.30603831683E-01 -0.37187803433E-01  0.65671226280E-01  0.81440151768E-01  0.51100000000E-03 0.  1.
</event>
<event>
 8    1  0.1093753E+005  0.1043930E+01  0.7957747E-01            NaN
         13   -1    0    0    0    0  0.00000000000E+00  0.00000000000E+00  0.74505805969E-08  0.10566000000E+00  0.10566000000E+00 0.  1.
     999900   -1    0    0    0    0 -0.00000000000E+00 -0.00000000000E+00 -0.74505805969E-08  0.93827000000E+00  0.93827000000E+00 0. -1.
     999902    2    1    2    0    0  0.20104942310E-01  0.15392616497E-01  0.32469590728E-02  0.10184018961E+01  0.10180818915E+01 0.  0.
     999903    2    3    3    0    0  0.97657898962E-01  0.44259670645E-01  0.73921508568E-01  0.13169864251E+00  0.19599983012E-01 0.  0.
         14    1    1    2    0    0 -0.20104942310E-01 -0.15392616497E-01 -0.32469590728E-02  0.25528103948E-01  0.00000000000E+00 0.  1.
     999901    1    3    3    0    0 -0.77552956652E-01 -0.28867054148E-01 -0.70674549495E-01  0.88670325354E+00  0.88000000000E+00 0. -1.
        -11    1    4    4    0    0  0.62219240001E-01  0.37982802565E-01  0.52165640470E-01  0.89640628532E-01  0.51100000000E-03 0.  1.
         11    1    4    4    0    0  0.35438658961E-01  0.62768680802E-02  0.21755868098E-01  0.42058013976E-01  0.51100000000E-03 0. -1.
</event>
<event>
 8    1  0.1093753E+005  0.1043930E+01  0.7957747E-01            NaN
         13   -1    0    0    0    0  0.00000000000E+00  0.00000000000E+00  0.74505805969E-08  0.10566000000E+00  0.10566000000E+00 0.  1.
     999900   -1    0    0    0    0 -0.00000000000E+00 -0.00000000000E+00 -0.74505805969E-08  0.93827000000E+00  0.93827000000E+00 0. -1.
     999902    2    1    2    0    0 -0.23637226895E-01 -0.16689340078E-02  0.97913400024E-03  0.10202137073E+01  0.10199380109E+01 0.  0.
     999903    2    3    3    0    0 -0.78233668989E-01 -0.43944989316E-01 -0.95144928376E-01  0.13229035942E+00  0.19912627920E-01 0.  0.
         14    1    1    2    0    0  0.23637226895E-01  0.16689340078E-02 -0.97913400024E-03  0.23716292699E-01  0.00000000000E+00 0. -1.
     999901    1    3    3    0    0  0.54596442095E-01  0.42276055309E-01  0.96124062376E-01  0.88792334788E+00  0.88000000000E+00 0.  1.
        -11    1    4    4    0    0 -0.39188230248E-01 -0.27077714645E-01 -0.62959264779E-01  0.78949668541E-01  0.51100000000E-03 0.  1.
         11    1    4    4    0    0 -0.39045438742E-01 -0.16867274671E-01 -0.32185663597E-01  0.53340690880E-01  0.51100000000E-03 0. -1.
</event>
<event>
 8    1  0.1093753E+005  0.1043930E+01  0.7957747E-01            NaN
         13   -1    0    0    0    0  0.00000000000E+00  0.00000000000E+00  0.74505805969E-08  0.10566000000E+00  0.10566000000E+00 0. -1.
     999900   -1    0    0    0    0 -0.00000000000E+00 -0.00000000000E+00 -0.74505805969E-08  0.93827000000E+00  0.93827000000E+00 0.  1.
     999902    2    1    2    0    0 -0.57772911095E-02 -0.82787260321E-02  0.21353324955E-01  0.10203105401E+01  0.10200371167E+01 0.  0.
     999903    2    3    3    0    0 -0.18647648262E-01 -0.12667520848E+00 -0.20300179776E-01  0.13131200943E+00  0.20890267898E-01 0.  0.
         14    1    1    2    0    0  0.57772911095E-02  0.82787260321E-02 -0.21353324955E-01  0.23619459857E-01  0.00000000000E+00 0.  1.
     999901    1    3    3    0    0  0.12870357152E-01  0.11839648245E+00  0.41653504732E-01  0.88899853071E+00  0.88000000000E+00 0. -1.
        -11    1    4    4    0    0 -0.11546781314E-01 -0.60880205206E-01  0.40706463639E-03  0.61968979073E-01  0.51100000000E-03 0.  1.
         11    1    4    4    0    0 -0.71008669475E-02 -0.65795003275E-01 -0.20707244413E-01  0.69343030360E-01  0.51100000000E-03 0. -1.
</event>
<event>
 8    1  0.1093753E+005  0.1043930E+01  0.7957747E-01            NaN
         13   -1    0    0    0    0  0.00000000000E+00  0.00000000000E+00  0.74505805969E-08  0.10566000000E+00  0.10566000000E+00 0.  1.
     999900   -1    0    0    0    0 -0.00000000000E+00 -0.00000000000E+00 -0.74505805969E-08  0.93827000000E+00  0.93827000000E+00 0. -1.
     999902    2    1    2    0    0 -0.24299348650E-01 -0.21129117646E-01 -0.76906546516E-02  0.10108234429E+01  0.10102811433E+01 0.  0.
     999903    2    3    3    0    0 -0.70383674912E-01  0.86215985069E-01 -0.46447435102E-01  0.12225784356E+00  0.20063855811E-01 0.  0.
         14    1    1    2    0    0  0.24299348650E-01  0.21129117646E-01  0.76906546516E-02  0.33106557149E-01  0.00000000000E+00 0. -1.
     999901    1    3    3    0    0  0.46084326261E-01 -0.10734510271E+00  0.38756780451E-01  0.88856559929E+00  0.88000000000E+00 0.  1.
        -11    1    4    4    0    0 -0.48563437554E-01  0.63461165274E-01 -0.42413652081E-01  0.90470470149E-01  0.51100000000E-03 0.  1.
         11    1    4    4    0    0 -0.21820237357E-01  0.22754819795E-01 -0.40337830209E-02  0.31787373416E-01  0.51100000000E-03 0. -1.
</event>
<event>
 8    1  0.1093753E+005  0.1043930E+01  0.7957747E-01            NaN
         13   -1    0    0    0    0  0.00000000000E+00  0.00000000000E+00  0.74505805969E-08  0.10566000000E+00  0.10566000000E+00 0.  1.
     999900   -1    0    0    0    0 -0.00000000000E+00 -0.00000000000E+00 -0.74505805969E-08  0.93827000000E+00  0.93827000000E+00 0.  1.
     999902    2    1    2    0    0  0.56784403413E-02 -0.82129239959E-02  0.20514640620E-01  0.10211144946E+01  0.10208595711E+01 0.  0.
     999903    2    3    3    0    0 -0.56904944549E-01 -0.10463849896E+00 -0.49560464223E-01  0.13087571100E+00  0.22018717889E-01 0.  0.
         14    1    1    2    0    0 -0.56784403413E-02  0.82129239959E-02 -0.20514640620E-01  0.22815505365E-01  0.00000000000E+00 0. -1.
     999901    1    3    3    0    0  0.62583384890E-01  0.96425574961E-01  0.70075104843E-01  0.89023878364E+00  0.88000000000E+00 0. -1.
        -11    1    4    4    0    0 -0.89433956703E-02 -0.30465435176E-01 -0.57268709174E-02  0.32267402097E-01  0.51100000000E-03 0.  1.
         11    1    4    4    0    0 -0.47961548879E-01 -0.74173063781E-01 -0.43833593306E-01  0.98608308902E-01  0.51100000000E-03 0. -1.
</event>
<event>
 8    1  0.1093753E+005  0.1043930E+01  0.7957747E-01            NaN
         13   -1    0    0    0    0  0.00000000000E+00  0.00000000000E+00  0.74505805969E-08  0.10566000000E+00  0.10566000000E+00 0.  1.
     999900   -1    0    0    0    0 -0.00000000000E+00 -0.00000000000E+00 -0.74505805969E-08  0.93827000000E+00  0.93827000000E+00 0. -1.
     999902    2    1    2    0    0  0.14947343209E-01  0.12732297298E-01 -0.13036897342E-01  0.10203610553E+01  0.10200888138E+01 0.  0.
     999903    2    3    3    0    0  0.66458761925E-02 -0.79402400766E-01 -0.10237126486E+00  0.13101390923E+00  0.18326473322E-01 0.  0.
         14    1    1    2    0    0 -0.14947343209E-01 -0.12732297298E-01  0.13036897342E-01  0.23568944733E-01  0.00000000000E+00 0. -1.
     999901    1    3    3    0    0  0.83014670169E-02  0.92134698064E-01  0.89334367522E-01  0.88934714604E+00  0.88000000000E+00 0.  1.
        -11    1    4    4    0    0 -0.14077188648E-03 -0.42451207879E-02 -0.14832917537E-01  0.15437533187E-01  0.51100000000E-03 0. -1.
         11    1    4    4    0    0  0.67866480790E-02 -0.75157279978E-01 -0.87538347327E-01  0.11557637604E+00  0.51100000000E-03 0.  1.
</event>
<event>
 8    1  0.1093753E+005  0.1043930E+01  0.7957747E-01            NaN
         13   -1    0    0    0    0  0.00000000000E+00  0.00000000000E+00  0.74505805969E-08  0.10566000000E+00  0.10566000000E+00 0.  1.
     999900   -1    0    0    0    0 -0.00000000000E+00 -0.00000000000E+00 -0.74505805969E-08  0.93827000000E+00  0.93827000000E+00 0. -1.
     999902    2    1    2    0    0 -0.10757999442E-01 -0.19924342837E-01 -0.70647601633E-02  0.10202102861E+01  0.10199345092E+01 0.  0.
     999903    2    3    3    0    0  0.62198272476E-01  0.19719544536E-01 -0.11098252430E+00  0.13021413046E+00  0.19522129371E-01 0.  0.
         14    1    1    2    0    0  0.10757999442E-01  0.19924342837E-01  0.70647601633E-02  0.23719713861E-01  0.00000000000E+00 0.  1.
     999901    1    3    3    0    0 -0.72956271918E-01 -0.39643887372E-01  0.10391776414E+00  0.88999615568E+00  0.88000000000E+00 0.  1.
        -11    1    4    4    0    0  0.39209335260E-01  0.14555776680E-01 -0.52249443610E-01  0.66929127328E-01  0.51100000000E-03 0.  1.
         11    1    4    4    0    0  0.22988937215E-01  0.51637678552E-02 -0.58733080693E-01  0.63285003133E-01  0.51100000000E-03 0. -1.
</event>
<event>
 8    1  0.1093753E+005  0.1043930E+01  0.7957747E-01            NaN
         13   -1    0    0    0    0  0.00000000000E+00  0.00000000000E+00  0.74505805969E-08  0.10566000000E+00  0.10566000000E+00 0.  1.
     999900   -1    0    0    0    0 -0.00000000000E+00 -0.00000000000E+00 -0.74505805969E-08  0.93827000000E+00  0.93827000000E+00 0.  1.
     999902    2    1    2    0    0  0.59205759968E-02  0.19530028861E-01  0.12662484715E-01  0.10199130525E+01  0.10196302374E+01 0.  0.
     999903    2    3    3    0    0  0.90165720556E-01  0.94938486271E-01  0.92786375579E-02  0.13267287632E+00  0.19308693824E-01 0.  0.
         14    1    1    2    0    0 -0.59205759968E-02 -0.19530028861E-01 -0.12662484715E-01  0.24016947487E-01  0.00000000000E+00 0. -1.
     999901    1    3    3    0    0 -0.84245144559E-01 -0.75408457410E-01  0.33838471567E-02  0.88724017619E+00  0.88000000000E+00 0. -1.
        -11    1    4    4    0    0  0.42231627856E-01  0.57001978903E-01  0.92250606367E-02  0.71540889391E-01  0.51100000000E-03 0. -1.
         11    1    4    4    0    0  0.47934092700E-01  0.37936507368E-01  0.53576921200E-04  0.61131986928E-01  0.51100000000E-03 0.  1.
</event>
<event>
 8    1  0.1093753E+005  0.1043930E+01  0.7957747E-01            NaN
         13   -1    0    0    0    0  0.00000000000E+00  0.00000000000E+00  0.74505805969E-08  0.10566000000E+00  0.10566000000E+00 0.  1.
     999900   -1    0    0    0    0 -0.00000000000E+00 -0.00000000000E+00 -0.74505805969E-08  0.93827000000E+00  0.93827000000E+00 0. -1.
     999902    2    1    2    0    0  0.24774955490E-02  0.23540355756E-01 -0.38990326839E-02  0.10199406526E+01  0.10196584948E+01 0.  0.
     999903    2    3    3    0    0 -0.10425588389E+00 -0.64067377079E-01  0.33351126757E-01  0.12839440953E+00  0.19972696605E-01 0.  0.
         14    1    1    2    0    0 -0.24774955490E-02 -0.23540355756E-01  0.38990326839E-02  0.23989347410E-01  0.00000000000E+00 0.  1.
     999901    1    3    3    0    0  0.10673337944E+00  0.87607732835E-01 -0.37250159441E-01  0.89154624306E+00  0.88000000000E+00 0. -1.
        -11    1    4    4    0    0 -0.89307573832E-01 -0.51428370684E-01  0.34758507336E-01  0.10876182698E+00  0.51100000000E-03 0. -1.
         11    1    4    4    0    0 -0.14948310061E-01 -0.12639006395E-01 -0.14073805791E-02  0.19632582546E-01  0.51100000000E-03 0.  1.
</event>
<event>
 8    1  0.1093753E+005  0.1043930E+01  0.7957747E-01            NaN
         13   -1    0    0    0    0  0.00000000000E+00  0.00000000000E+00  0.74505805969E-08  0.10566000000E+00  0.10566000000E+00 0.  1.
     999900   -1    0    0    0    0 -0.00000000000E+00 -0.00000000000E+00 -0.74505805969E-08  0.93827000000E+00  0.93827000000E+00 0. -1.
     999902    2    1    2    0    0 -0.21681551013E-02 -0.23778049001E-01  0.11811751953E-02  0.10200241077E+01  0.10197439329E+01 0.  0.
     999903    2    3    3    0    0 -0.62046828025E-01  0.99105330901E-01  0.48316390139E-01  0.12822395689E+00  0.20862264599E-01 0.  0.
         14    1    1    2    0    0  0.21681551013E-02  0.23778049001E-01 -0.11811751953E-02  0.23905892280E-01  0.00000000000E+00 0.  1.
     999901    1    3    3    0    0  0.59878672924E-01 -0.12288337990E+00 -0.47135214944E-01  0.89180015083E+00  0.88000000000E+00 0. -1.
        -11    1    4    4    0    0 -0.22710480284E-01  0.23370675082E-01  0.66916526504E-02  0.33271514915E-01  0.51100000000E-03 0.  1.
         11    1    4    4    0    0 -0.39336347741E-01  0.75734655819E-01  0.41624737489E-01  0.94952441979E-01  0.51100000000E-03 0. -1.
</event>
<event>
 8    1  0.1093753E+005  0.1043930E+01  0.7957747E-01            NaN
         13   -1    0    0    0    0  0.00000000000E+00  0.00000000000E+00  0.74505805969E-08  0.10566000000E+00  0.10566000000E+00 0. -1.
     999900   -1    0    0    0    0 -0.00000000000E+00 -0.00000000000E+00 -0.74505805969E-08  0.93827000000E+00  0.93827000000E+00 0. -1.
     999902    2    1    2    0    0  0.21055757571E-01 -0.80251129468E-02  0.16694250880E-02  0.10213349929E+01  0.10210850275E+01 0.  0.
     999903    2    3    3    0    0 -0.23105190643E-01 -0.54056547887E-01  0.11612697539E+00  0.13163301295E+00  0.19642186229E-01 0.  0.
         14    1    1    2    0    0 -0.21055757571E-01  0.80251129468E-02 -0.16694250880E-02  0.22595007077E-01  0.00000000000E+00 0.  1.
     999901    1    3    3    0    0  0.44160948214E-01  0.46031434940E-01 -0.11445755030E+00  0.88970197998E+00  0.88000000000E+00 0. -1.
        -11    1    4    4    0    0 -0.20544435006E-02 -0.29558360060E-01  0.53090726667E-01  0.60801346750E-01  0.51100000000E-03 0.  1.
         11    1    4    4    0    0 -0.21050747143E-01 -0.24498187827E-01  0.63036248725E-01  0.70831666198E-01  0.51100000000E-03 0. -1.
</event>
<event>
 8    1  0.1093753E+005  0.1043930E+01  0.7957747E-01            NaN
         13   -1    0    0    0    0  0.00000000000E+00  0.00000000000E+00  0.74505805969E-08  0.10566000000E+00  0.10566000000E+00 0.  1.
     999900   -1    0    0    0    0 -0.00000000000E+00 -0.00000000000E+00 -0.74505805969E-08  0.93827000000E+00  0.93827000000E+00 0. -1.
     999902    2    1    2    0    0  0.18553575053E-03 -0.83611007964E-03  0.23303375887E-01  0.10206108913E+01  0.10203444568E+01 0.  0.
     999903    2    3    3    0    0 -0.63989475362E-01 -0.64940645910E-01  0.94873862133E-01  0.13305798691E+00  0.19784784955E-01 0.  0.
         14    1    1    2    0    0 -0.18553575053E-03  0.83611007964E-03 -0.23303375887E-01  0.23319108716E-01  0.00000000000E+00 0. -1.
     999901    1    3    3    0    0  0.64175011112E-01  0.64104535830E-01 -0.71570486246E-01  0.88755290438E+00  0.88000000000E+00 0. -1.
        -11    1    4    4    0    0 -0.53614469987E-01 -0.44095135357E-01  0.64300375394E-01  0.94623949141E-01  0.51100000000E-03 0.  1.
         11    1    4    4    0    0 -0.10375005375E-01 -0.20845510552E-01  0.30573486739E-01  0.38434037767E-01  0.51100000000E-03 0. -1.
</event>
<event>
 8    1  0.1093753E+005  0.1043930E+01  0.7957747E-01            NaN
         13   -1    0    0    0    0  0.00000000000E+00  0.00000000000E+00  0.74505805969E-08  0.10566000000E+00  0.10566000000E+00 0.  1.
     999900   -1    0    0    0    0 -0.00000000000E+00 -0.00000000000E+00 -0.74505805969E-08  0.93827000000E+00  0.93827000000E+00 0.  1.
     999902    2    1    2    0    0 -0.23540596490E-01  0.26527873373E-02 -0.33427519097E-02  0.10200057246E+01  0.10197251136E+01 0.  0.
     999903    2    3    3    0    0  0.32574667161E-01 -0.12321643339E+00  0.81585967366E-02  0.12920593532E+00  0.19601342382E-01 0.  0.
         14    1    1    2    0    0  0.23540596490E-01 -0.26527873373E-02  0.33427519097E-02  0.23924275414E-01  0.00000000000E+00 0.  1.
     999901    1    3    3    0    0 -0.56115263651E-01  0.12586922072E+00 -0.11501348646E-01  0.89079978927E+00  0.88000000000E+00 0. -1.
        -11    1    4    4    0    0  0.11561991471E-01 -0.64015016488E-01 -0.41675537808E-02  0.65186130490E-01  0.51100000000E-03 0. -1.
         11    1    4    4    0    0  0.21012675691E-01 -0.59201416899E-01  0.12326150517E-01  0.64019804827E-01  0.51100000000E-03 0.  1.
</event>
<event>
 8    1  0.1093753E+005  0.1043930E+01  0.7957747E-01            NaN
         13   -1    0    0    0    0  0.00000000000E+00  0.00000000000E+00  0.74505805969E-08  0.10566000000E+00  0.10566000000E+00 0. -1.
     999900   -1    0    0    0    0 -0.00000000000E+00 -0.00000000000E+00 -0.74505805969E-08  0.93827000000E+00  0.93827000000E+00 0. -1.
     999902    2    1    2    0    0  0.14327068115E-02 -0.17916431771E-01 -0.15550237912E-01  0.10201631938E+01  0.10198863079E+01 0.  0.
     999903    2    3    3    0    0 -0.24227833093E-01 -0.91304561342E-01 -0.92132229399E-01  0.13342248636E+00  0.19740854955E-01 0.  0.
         14    1    1    2    0    0 -0.14327068115E-02  0.17916431771E-01  0.15550237912E-01  0.23766806166E-01  0.00000000000E+00 0. -1.
     999901    1    3    3    0    0  0.25660539904E-01  0.73388129572E-01  0.76581991487E-01  0.88674070747E+00  0.88000000000E+00 0.  1.
        -11    1    4    4    0    0 -0.19767386339E-01 -0.40992915553E-01 -0.50331523699E-01  0.67857881540E-01  0.51100000000E-03 0. -1.
         11    1    4    4    0    0 -0.44604467533E-02 -0.50311645790E-01 -0.41800705700E-01  0.65564604821E-01  0.51100000000E-03 0.  1.
</event>
<event>
 8    1  0.1093753E+005  0.1043930E+01  0.7957747E-01            NaN
         13   -1    0    0    0    0  0.00000000000E+00  0.00000000000E+00  0.74505805969E-08  0.10566000000E+00  0.10566000000E+00 0.  1.
     999900   -1    0    0    0    0 -0.00000000000E+00 -0.00000000000E+00 -0.74505805969E-08  0.93827000000E+00  0.93827000000E+00 0.  1.
     999902    2    1    2    0    0  0.14111203411E-01  0.17795278964E-01  0.83521688998E-02  0.10197317203E+01  0.10194445667E+01 0.  0.
     999903    2    3    3    0    0 -0.84075548443E-01  0.61460034740E-01 -0.73901892352E-01  0.12938741626E+00  0.20822585768E-01 0.  0.
         14    1    1    2    0    0 -0.14111203411E-01 -0.17795278964E-01 -0.83521688998E-02  0.24198279700E-01  0.00000000000E+00 0.  1.
     999901    1    3    3    0    0  0.98186751854E-01 -0.43664755776E-01  0.82254061252E-01  0.89034430404E+00  0.88000000000E+00 0.  1.
        -11    1    4    4    0    0 -0.37272443330E-01  0.14798687376E-01 -0.28683186996E-01  0.49307428620E-01  0.51100000000E-03 0.  1.
         11    1    4    4    0    0 -0.46803105113E-01  0.46661347364E-01 -0.45218705356E-01  0.80079987644E-01  0.51100000000E-03 0. -1.
</event>
<event>
 8    1  0.1093753E+005  0.1043930E+01  0.7957747E-01            NaN
         13   -1    0    0    0    0  0.00000000000E+00  0.00000000000E+00  0.74505805969E-08  0.10566000000E+00  0.10566000000E+00 0.  1.
     999900   -1    0    0    0    0 -0.00000000000E+00 -0.00000000000E+00 -0.74505805969E-08  0.93827000000E+00  0.93827000000E+00 0. -1.
     999902    2    1    2    0    0  0.22207774591E-01 -0.10449914974E-01  0.26562316133E-02  0.10192431302E+01  0.10189441186E+01 0.  0.
     999903    2    3    3    0    0 -0.10857382406E+00  0.37463665625E-01 -0.49814840462E-01  0.12674509032E+00  0.19773671303E-01 0.  0.
         14    1    1    2    0    0 -0.22207774591E-01  0.10449914974E-01 -0.26562316133E-02  0.24686869822E-01  0.00000000000E+00 0.  1.
     999901    1    3    3    0    0  0.13078159865E+00 -0.47913580599E-01  0.52471072075E-01  0.89249803986E+00  0.88000000000E+00 0.  1.
        -11    1    4    4    0    0 -0.83515451233E-01  0.27861686249E-01 -0.28720881909E-01  0.92608068406E-01  0.51100000000E-03 0.  1.
         11    1    4    4    0    0 -0.25058372824E-01  0.96019793758E-02 -0.21093958552E-01  0.34137021911E-01  0.51100000000E-03 0. -1.
</event>
<event>
 8    1  0.1093753E+005  0.1043930E+01  0.7957747E-01            NaN
         13   -1    0    0    0    0  0.00000000000E+00  0.00000000000E+00  0.74505805969E-08  0.10566000000E+00  0.10566000000E+00 0.  1.
     999900   -1    0    0    0    0 -0.00000000000E+00 -0.00000000000E+00 -0.74505805969E-08  0.93827000000E+00  0.93827000000E+00 0. -1.
     999902    2    1    2    0    0 -0.47387337508E-02  0.23826367300E-01 -0.34607566716E-02  0.10193916991E+01  0.10190963192E+01 0.  0.
     999903    2    3    3    0    0  0.48592217930E-01 -0.52327471083E-01 -0.10467629651E+00  0.12872443065E+00  0.22660188026E-01 0.  0.
         14    1    1    2    0    0  0.47387337508E-02 -0.23826367300E-01  0.34607566716E-02  0.24538300940E-01  0.00000000000E+00 0. -1.
     999901    1    3    3    0    0 -0.53330951680E-01  0.76153838384E-01  0.10121553984E+00  0.89066726841E+00  0.88000000000E+00 0.  1.
        -11    1    4    4    0    0  0.32525646900E-01 -0.48040706766E-01 -0.76640637582E-01  0.96124271975E-01  0.51100000000E-03 0.  1.
         11    1    4    4    0    0  0.16066571030E-01 -0.42867643178E-02 -0.28035658932E-01  0.32600158677E-01  0.51100000000E-03 0. -1.
</event>
<event>
 8    1  0.1093753E+005  0.1043930E+01  0.7957747E-01            NaN
         13   -1    0    0    0    0  0.00000000000E+00  0.00000000000E+00  0.74505805969E-08  0.10566000000E+00  0.10566000000E+00 0.  1.
     999900   -1    0    0    0    0 -0.00000000000E+00 -0.00000000000E+00 -0.74505805969E-08  0.93827000000E+00  0.93827000000E+00 0. -1.
     999902    2    1    2    0    0 -0.13989982102E-01  0.20806684167E-02  0.19303688802E-01  0.10199992419E+01  0.10197184770E+01 0.  0.
     999903    2    3    3    0    0  0.12579323049E+00  0.46964462358E-03  0.20170257304E-01  0.12896462259E+00  0.20021917956E-01 0.  0.
         14    1    1    2    0    0  0.13989982102E-01 -0.20806684167E-02 -0.19303688802E-01  0.23930758066E-01  0.00000000000E+00 0. -1.
     999901    1    3    3    0    0 -0.13978321259E+00  0.16110237932E-02 -0.86656850233E-03  0.89103461934E+00  0.88000000000E+00 0. -1.
        -11    1    4    4    0    0  0.12953993918E-01 -0.40881723890E-02 -0.23871788720E-02  0.13801407749E-01  0.51100000000E-03 0. -1.
         11    1    4    4    0    0  0.11283923657E+00  0.45578170126E-02  0.22557436176E-01  0.11516321485E+00  0.51100000000E-03 0.  1.
</event>
<event>
 8    1  0.1093753E+005  0.1043930E+01  0.7957747E-01            NaN
         13   -1    0    0    0    0  0.00000000000E+00  0.00000000000E+00  0.74505805969E-08  0.10566000000E+00  0.10566000000E+00 0.  1.
     999900   -1    0    0    0    0 -0.00000000000E+00 -0.00000000000E+00 -0.74505805969E-08  0.93827000000E+00  0.93827000000E+00 0. -1.
     999902    2    1    2    0    0  0.69208190523E-02  0.18462133850E-01  0.13770806800E-01  0.10198804004E+01  0.10195968065E+01 0.  0.
     999903    2    3    3    0    0 -0.42610543294E-01  0.30310281041E-01  0.11960008447E+00  0.13207773622E+00  0.20148862618E-01 0.  0.
         14    1    1    2    0    0 -0.69208190523E-02 -0.18462133850E-01 -0.13770806800E-01  0.24049599635E-01  0.00000000000E+00 0. -1.
     999901    1    3    3    0    0  0.49531362347E-01 -0.11848147191E-01 -0.10582927767E+00  0.88780266414E+00  0.88000000000E+00 0. -1.
        -11    1    4    4    0    0 -0.32952351757E-01  0.28435207964E-01  0.11009803424E+00  0.11839027326E+00  0.51100000000E-03 0. -1.
         11    1    4    4    0    0 -0.96581915377E-02  0.18750730769E-02  0.95020502244E-02  0.13687462960E-01  0.51100000000E-03 0.  1.
</event>
<event>
 8    1  0.1093753E+005  0.1043930E+01  0.7957747E-01            NaN
         13   -1    0    0    0    0  0.00000000000E+00  0.00000000000E+00  0.74505805969E-08  0.10566000000E+00  0.10566000000E+00 0.  1.
     999900   -1    0    0    0    0 -0.00000000000E+00 -0.00000000000E+00 -0.74505805969E-08  0.93827000000E+00  0.93827000000E+00 0. -1.
     999902    2    1    2    0    0 -0.18621381234E-01 -0.26726405497E-02  0.15129078945E-01  0.10197890001E+01  0.10195032206E+01 0.  0.
     999903    2    3    3    0    0 -0.32115937281E-01  0.12153451944E+00  0.29774146825E-01  0.13084355765E+00  0.20771709522E-01 0.  0.
         14    1    1    2    0    0  0.18621381234E-01  0.26726405497E-02 -0.15129078945E-01  0.24140999902E-01  0.00000000000E+00 0. -1.
     999901    1    3    3    0    0  0.13494556047E-01 -0.12420715999E+00 -0.14645067880E-01  0.88894544245E+00  0.88000000000E+00 0.  1.
        -11    1    4    4    0    0 -0.90904292425E-02  0.50296416855E-01  0.21740307341E-01  0.55545184639E-01  0.51100000000E-03 0.  1.
         11    1    4    4    0    0 -0.23025508038E-01  0.71238102584E-01  0.80338394842E-02  0.75298373011E-01  0.51100000000E-03 0. -1.
</event>
<event>
 8    1  0.1093753E+005  0.1043930E+01  0.7957747E-01            NaN
         13   -1    0    0    0    0  0.00000000000E+00  0.00000000000E+00  0.74505805969E-08  0.10566000000E+00  0.10566000000E+00 0. -1.
     999900   -1    0    0    0    0 -0.00000000000E+00 -0.00000000000E+00 -0.74505805969E-08  0.93827000000E+00  0.93827000000E+00 0.  1.
     999902    2    1    2    0    0  0.11411168552E-01  0.13938341580E-01 -0.15096818655E-01  0.10204266797E+01  0.10201559697E+01 0.  0.
     999903    2    3    3    0    0 -0.46810976248E-02 -0.98966460225E-01  0.78673213390E-01  0.12812668850E+00  0.20265756269E-01 0.  0.
         14    1    1    2    0    0 -0.11411168552E-01 -0.13938341580E-01  0.15096818655E-01  0.23503320345E-01  0.00000000000E+00 0. -1.
     999901    1    3    3    0    0  0.16092266177E-01  0.11290480180E+00 -0.93770032045E-01  0.89229999115E+00  0.88000000000E+00 0. -1.
        -11    1    4    4    0    0 -0.80836407739E-02 -0.17444066801E-01  0.11265073108E-01  0.22289093922E-01  0.51100000000E-03 0.  1.
         11    1    4    4    0    0  0.34025431491E-02 -0.81522393424E-01  0.67408140281E-01  0.10583759458E+00  0.51100000000E-03 0. -1.
</event>
<event>
 8    1  0.1093753E+005  0.1043930E+01  0.7957747E-01            NaN
         13   -1    0    0    0    0  0.00000000000E+00  0.00000000000E+00  0.74505805969E-08  0.10566000000E+00  0.10566000000E+00 0. -1.
     999900   -1    0    0    0    0 -0.00000000000E+00 -0.00000000000E+00 -0.74505805969E-08  0.93827000000E+00  0.93827000000E+00 0. -1.
     999902    2    1    2    0    0 -0.18159729998E-01 -0.11598137253E-01  0.97557897983E-02  0.10202769238E+01  0.10200027123E+01 0.  0.
     999903    2    3    3    0    0  0.59342104480E-01  0.27190382115E-02 -0.11161119232E+00  0.12845773793E+00  0.22703604338E-01 0.  0.
         14    1    1    2    0    0  0.18159729998E-01  0.11598137253E-01 -0.97557897983E-02  0.23653076246E-01  0.00000000000E+00 0.  1.
     999901    1    3    3    0    0 -0.77501834478E-01 -0.14317175464E-01  0.12136698212E+00  0.89181918583E+00  0.88000000000E+00 0.  1.
        -11    1    4    4    0    0  0.16066585432E-01  0.31780595309E-02 -0.53801195185E-01  0.56241132227E-01  0.51100000000E-03 0.  1.
         11    1    4    4    0    0  0.43275519047E-01 -0.45902131938E-03 -0.57809997133E-01  0.72216605700E-01  0.51100000000E-03 0. -1.
</event>
<event>
 8    1  0.1093753E+005  0.1043930E+01  0.7957747E-01            NaN
         13   -1    0    0    0    0  0.00000000000E+00  0.00000000000E+00  0.74505805969E-08  0.10566000000E+00  0.10566000000E+00 0.  1.
     999900   -1    0    0    0    0 -0.00000000000E+00 -0.00000000000E+00 -0.74505805969E-08  0.93827000000E+00  0.93827000000E+00 0. -1.
     999902    2    1    2    0    0  0.86141386983E-02 -0.15966439822E-02  0.23778050084E-01  0.10185893543E+01  0.10182740910E+01 0.  0.
     999903    2    3    3    0    0  0.10657542640E+00 -0.70406724226E-01 -0.14392385902E-01  0.12966403507E+00  0.17035048867E-01 0.  0.
         14    1    1    2    0    0 -0.86141386983E-02  0.15966439822E-02 -0.23778050084E-01  0.25340645677E-01  0.00000000000E+00 0. -1.
     999901    1    3    3    0    0 -0.97961287700E-01  0.68810080244E-01  0.38170435986E-01  0.88892531926E+00  0.88000000000E+00 0.  1.
        -11    1    4    4    0    0  0.52364804733E-01 -0.26979004925E-01 -0.12250131614E-01  0.60168649038E-01  0.51100000000E-03 0.  1.
         11    1    4    4    0    0  0.54210621665E-01 -0.43427719301E-01 -0.21422542877E-02  0.69495386029E-01  0.51100000000E-03 0. -1.
</event>
<event>
 8    1  0.1093753E+005  0.1043930E+01  0.7957747E-01            NaN
         13   -1    0    0    0    0  0.00000000000E+00  0.00000000000E+00  0.74505805969E-08  0.10566000000E+00  0.10566000000E+00 0.  1.
     999900   -1    0    0    0    0 -0.00000000000E+00 -0.00000000000E+00 -0.74505805969E-08  0.93827000000E+00  0.93827000000E+00 0.  1.
     999902    2    1    2    0    0 -0.83509861060E-02  0.13341222759E-01 -0.17252134541E-01  0.10205769844E+01  0.10203097655E+01 0.  0.
     999903    2    3    3    0    0 -0.44577904446E-01  0.10977365728E+00  0.53946942776E-01  0.13171202686E+00  0.20008497902E-01 0.  0.
         14    1    1    2    0    0  0.83509861060E-02 -0.13341222759E-01  0.17252134541E-01  0.23353015648E-01  0.00000000000E+00 0.  1.
     999901    1    3    3    0    0  0.36226918340E-01 -0.96432434521E-01 -0.71199077317E-01  0.88886495749E+00  0.88000000000E+00 0.  1.
        -11    1    4    4    0    0 -0.23310691724E-01  0.77525162835E-01  0.42418499598E-01  0.91395456399E-01  0.51100000000E-03 0.  1.
         11    1    4    4    0    0 -0.21267212722E-01  0.32248494445E-01  0.11528443177E-01  0.40316570465E-01  0.51100000000E-03 0. -1.
</event>
<event>
 8    1  0.1093753E+005  0.1043930E+01  0.7957747E-01            NaN
         13   -1    0    0    0    0  0.00000000000E+00  0.00000000000E+00  0.74505805969E-08  0.10566000000E+00  0.10566000000E+00 0. -1.
     999900   -1    0    0    0    0 -0.00000000000E+00 -0.00000000000E+00 -0.74505805969E-08  0.93827000000E+00  0.93827000000E+00 0. -1.
     999902    2    1    2    0    0 -0.16443395191E-01  0.10890270045E-01  0.14111862318E-01  0.10196786519E+01  0.10193902223E+01 0.  0.
     999903    2    3    3    0    0  0.78529492015E-01 -0.53826559421E-01 -0.81668432408E-01  0.12705220024E+00  0.20207650027E-01 0.  0.
         14    1    1    2    0    0  0.16443395191E-01 -0.10890270045E-01 -0.14111862318E-01  0.24251348110E-01  0.00000000000E+00 0.  1.
     999901    1    3    3    0    0 -0.94972887207E-01  0.64716829466E-01  0.95780294726E-01  0.89262645165E+00  0.88000000000E+00 0.  1.
        -11    1    4    4    0    0  0.41263361595E-01 -0.16408942678E-01 -0.40261751361E-01  0.59943207735E-01  0.51100000000E-03 0. -1.
         11    1    4    4    0    0  0.37266130421E-01 -0.37417616743E-01 -0.41406681047E-01  0.67108992509E-01  0.51100000000E-03 0.  1.
</event>
<event>
 8    1  0.1093753E+005  0.1043930E+01  0.7957747E-01            NaN
         13   -1    0    0    0    0  0.00000000000E+00  0.00000000000E+00  0.74505805969E-08  0.10566000000E+00  0.10566000000E+00 0.  1.
     999900   -1    0    0    0    0 -0.00000000000E+00 -0.00000000000E+00 -0.74505805969E-08  0.93827000000E+00  0.93827000000E+00 0. -1.
     999902    2    1    2    0    0 -0.20025487477E-02 -0.24604765119E-01  0.63129440271E-02  0.10184494598E+01  0.10181306616E+01 0.  0.
     999903    2    3    3    0    0 -0.10427310627E+00  0.59283914185E-01  0.39823536128E-01  0.12793301566E+00  0.19836312500E-01 0.  0.
         14    1    1    2    0    0  0.20025487477E-02  0.24604765119E-01 -0.63129440271E-02  0.25480540228E-01  0.00000000000E+00 0. -1.
     999901    1    3    3    0    0  0.10227055752E+00 -0.83888679304E-01 -0.33510592101E-01  0.89051644411E+00  0.88000000000E+00 0. -1.
        -11    1    4    4    0    0 -0.27473527628E-01  0.24683749491E-01  0.16993644863E-01  0.40658668153E-01  0.51100000000E-03 0. -1.
         11    1    4    4    0    0 -0.76799578642E-01  0.34600164695E-01  0.22829891265E-01  0.87274347506E-01  0.51100000000E-03 0.  1.
</event>
<event>
 8    1  0.1093753E+005  0.1043930E+01  0.7957747E-01            NaN
         13   -1    0    0    0    0  0.00000000000E+00  0.00000000000E+00  0.74505805969E-08  0.10566000000E+00  0.10566000000E+00 0.  1.
     999900   -1    0    0    0    0 -0.00000000000E+00 -0.00000000000E+00 -0.74505805969E-08  0.93827000000E+00  0.93827000000E+00 0.  1.
     999902    2    1    2    0    0  0.58108423511E-02  0.26773447433E-02  0.19893758902E-01  0.10230327345E+01  0.10228192803E+01 0.  0.
     999903    2    3    3    0    0  0.36611097856E-01  0.11584432576E+00  0.54687777314E-01  0.13456999183E+00  0.18922193726E-01 0.  0.
         14    1    1    2    0    0 -0.58108423511E-02 -0.26773447433E-02 -0.19893758902E-01  0.20897265537E-01  0.00000000000E+00 0. -1.
     999901    1    3    3    0    0 -0.30800255505E-01 -0.11316698102E+00 -0.34794018413E-01  0.88846274263E+00  0.88000000000E+00 0. -1.
        -11    1    4    4    0    0  0.15052282612E-01  0.65971546975E-01  0.38594883507E-01  0.77901491487E-01  0.51100000000E-03 0.  1.
         11    1    4    4    0    0  0.21558815244E-01  0.49872778788E-01  0.16092893808E-01  0.56668500341E-01  0.51100000000E-03 0. -1.
</event>
<event>
 8    1  0.1093753E+005  0.1043930E+01  0.7957747E-01            NaN
         13   -1    0    0    0    0  0.00000000000E+00  0.00000000000E+00  0.74505805969E-08  0.10566000000E+00  0.10566000000E+00 0.  1.
     999900   -1    0    0    0    0 -0.00000000000E+00 -0.00000000000E+00 -0.74505805969E-08  0.93827000000E+00  0.93827000000E+00 0.  1.
     999902    2    1    2    0    0  0.41411402520E-04 -0.41698382760E-02 -0.20735175333E-01  0.10227796628E+01  0.10225609527E+01 0.  0.
     999903    2    3    3    0    0 -0.73034617130E-01  0.77214116829E-01  0.73717646764E-01  0.13099225000E+00  0.20702728745E-01 0.  0.
         14    1    1    2    0    0 -0.41411402520E-04  0.41698382760E-02  0.20735175333E-01  0.21150337166E-01  0.00000000000E+00 0.  1.
     999901    1    3    3    0    0  0.73076028533E-01 -0.81383955105E-01 -0.94452822097E-01  0.89178741284E+00  0.88000000000E+00 0.  1.
        -11    1    4    4    0    0 -0.52543314613E-01  0.40942002149E-01  0.44787291719E-01  0.80269608638E-01  0.51100000000E-03 0. -1.
         11    1    4    4    0    0 -0.20491302517E-01  0.36272114680E-01  0.28930355046E-01  0.50722641357E-01  0.51100000000E-03 0.  1.
</event>
<event>
 8    1  0.1093753E+005  0.1043930E+01  0.7957747E-01            NaN
         13   -1    0    0    0    0  0.00000000000E+00  0.00000000000E+00  0.74505805969E-08  0.10566000000E+00  0.10566000000E+00 0. -1.
     999900   -1    0    0    0    0 -0.00000000000E+00 -0.00000000000E+00 -0.74505805969E-08  0.93827000000E+00  0.93827000000E+00 0. -1.
     999902    2    1    2    0    0 -0.23497079677E-01 -0.37190851710E-02  0.77957652121E-03  0.10201276453E+01  0.10198499207E+01 0.  0.
     999903    2    3    3    0    0  0.10287579504E-01 -0.12641104014E+00  0.23039215419E-01  0.13069512371E+00  0.21559790185E-01 0.  0.
         14    1    1    2    0    0  0.23497079677E-01  0.37190851710E-02 -0.77957652121E-03  0.23802354661E-01  0.00000000000E+00 0. -1.
     999901    1    3    3    0    0 -0.33784659182E-01  0.12269195497E+00 -0.22259638898E-01  0.88943252163E+00  0.88000000000E+00 0. -1.
        -11    1    4    4    0    0  0.14420344380E-01 -0.11071517922E+00  0.24764259886E-01  0.11436488504E+00  0.51100000000E-03 0. -1.
         11    1    4    4    0    0 -0.41327648755E-02 -0.15695860923E-01 -0.17250444670E-02  0.16330238671E-01  0.51100000000E-03 0.  1.
</event>
<event>
 8    1  0.1093753E+005  0.1043930E+01  0.7957747E-01            NaN
         13   -1    0    0    0    0  0.00000000000E+00  0.00000000000E+00  0.74505805969E-08  0.10566000000E+00  0.10566000000E+00 0.  1.
     999900   -1    0    0    0    0 -0.00000000000E+00 -0.00000000000E+00 -0.74505805969E-08  0.93827000000E+00  0.93827000000E+00 0.  1.
     999902    2    1    2    0    0 -0.51879921536E-02 -0.13663412819E-01  0.18864608746E-01  0.10200662707E+01  0.10197870950E+01 0.  0.
     999903    2    3    3    0    0  0.50035468414E-01 -0.88006934590E-01  0.82270254408E-01  0.13293783259E+00  0.25598905001E-01 0.  0.
         14    1    1    2    0    0  0.51879921536E-02  0.13663412819E-01 -0.18864608746E-01  0.23863729289E-01  0.00000000000E+00 0. -1.
     999901    1    3    3    0    0 -0.55223460568E-01  0.74343521771E-01 -0.63405645663E-01  0.88712843812E+00  0.88000000000E+00 0. -1.
        -11    1    4    4    0    0  0.13264123111E-01 -0.95331203851E-02  0.57428866994E-02  0.17322217376E-01  0.51100000000E-03 0.  1.
         11    1    4    4    0    0  0.36771345303E-01 -0.78473814205E-01  0.76527367709E-01  0.11561561521E+00  0.51100000000E-03 0. -1.
</event>
<event>
 8    1  0.1093753E+005  0.1043930E+01  0.7957747E-01            NaN
         13   -1    0    0    0    0  0.00000000000E+00  0.00000000000E+00  0.74505805969E-08  0.10566000000E+00  0.10566000000E+00 0.  1.
     999900   -1    0    0    0    0 -0.00000000000E+00 -0.00000000000E+00 -0.74505805969E-08  0.93827000000E+00  0.93827000000E+00 0.  1.
     999902    2    1    2    0    0 -0.14034753590E-01  0.77638783601E-02 -0.17275024383E-01  0.10203571643E+01  0.10200848318E+01 0.  0.
     999903    2    3    3    0    0  0.90760237697E-01 -0.78025384930E-01 -0.45320924961E-01  0.12955507605E+00  0.20128339477E-01 0.  0.
         14    1    1    2    0    0  0.14034753590E-01 -0.77638783601E-02  0.17275024383E-01  0.23572835700E-01  0.00000000000E+00 0.  1.
     999901    1    3    3    0    0 -0.10479499129E+00  0.85789263290E-01  0.28045900577E-01  0.89080208825E+00  0.88000000000E+00 0.  1.
        -11    1    4    4    0    0  0.45517775297E-01 -0.28021774579E-01 -0.14343041863E-01  0.55345024071E-01  0.51100000000E-03 0. -1.
         11    1    4    4    0    0  0.45242462400E-01 -0.50003610351E-01 -0.30977883097E-01  0.74210051976E-01  0.51100000000E-03 0.  1.
</event>
<event>
 8    1  0.1093753E+005  0.1043930E+01  0.7957747E-01            NaN
         13   -1    0    0    0    0  0.00000000000E+00  0.00000000000E+00  0.74505805969E-08  0.10566000000E+00  0.10566000000E+00 0. -1.
     999900   -1    0    0    0    0 -0.00000000000E+00 -0.00000000000E+00 -0.74505805969E-08  0.93827000000E+00  0.93827000000E+00 0.  1.
     999902    2    1    2    0    0 -0.20819307833E-01 -0.56521868669E-02 -0.83948814025E-02  0.10207812456E+01  0.10205187341E+01 0.  0.
     999903    2    3    3    0    0 -0.11777611644E-01 -0.10546007463E-01 -0.12985780749E+00  0.13237877819E+00  0.20277089017E-01 0.  0.
         14    1    1    2    0    0  0.20819307833E-01  0.56521868669E-02  0.83948814025E-02  0.23148754368E-01  0.00000000000E+00 0. -1.
     999901    1    3    3    0    0 -0.90416961889E-02  0.48938205965E-02  0.12146292609E+00  0.88840246745E+00  0.88000000000E+00 0. -1.
        -11    1    4    4    0    0  0.44020357262E-02  0.22371186470E-02 -0.30650081627E-01  0.31049496664E-01  0.51100000000E-03 0. -1.
         11    1    4    4    0    0 -0.16179647370E-01 -0.12783126110E-01 -0.99207725862E-01  0.10132928152E+00  0.51100000000E-03 0.  1.
</event>
<event>
 8    1  0.1093753E+005  0.1043930E+01  0.7957747E-01            NaN
         13   -1    0    0    0    0  0.00000000000E+00  0.00000000000E+00  0.74505805969E-08  0.10566000000E+00  0.10566000000E+00 0. -1.
     999900   -1    0    0    0    0 -0.00000000000E+00 -0.00000000000E+00 -0.74505805969E-08  0.93827000000E+00  0.93827000000E+00 0.  1.
     999902    2    1    2    0    0  0.13025375242E-01  0.90377832674E-02 -0.18164404264E-01  0.10198200952E+01  0.10195350603E+01 0.  0.
     999903    2    3    3    0    0  0.94339518095E-01 -0.42023786909E-01  0.76061282335E-01  0.12959666607E+00  0.18548149393E-01 0.  0.
         14    1    1    2    0    0 -0.13025375242E-01 -0.90377832674E-02  0.18164404264E-01  0.24109904787E-01  0.00000000000E+00 0. -1.
     999901    1    3    3    0    0 -0.81314142854E-01  0.51061570176E-01 -0.94225686599E-01  0.89022342914E+00  0.88000000000E+00 0.  1.
        -11    1    4    4    0    0  0.16298835376E-01 -0.15507624082E-01  0.16557974430E-01  0.27938612663E-01  0.51100000000E-03 0. -1.
         11    1    4    4    0    0  0.78040682719E-01 -0.26516162827E-01  0.59503307904E-01  0.10165805341E+00  0.51100000000E-03 0.  1.
</event>
<event>
 8    1  0.1093753E+005  0.1043930E+01  0.7957747E-01            NaN
         13   -1    0    0    0    0  0.00000000000E+00  0.00000000000E+00  0.74505805969E-08  0.10566000000E+00  0.10566000000E+00 0.  1.
     999900   -1    0    0    0    0 -0.00000000000E+00 -0.00000000000E+00 -0.74505805969E-08  0.93827000000E+00  0.93827000000E+00 0.  1.
     999902    2    1    2    0    0  0.23400329549E-01  0.32292866295E-02 -0.10319156799E-01  0.10181523214E+01  0.10178259483E+01 0.  0.
     999903    2    3    3    0    0 -0.28447841389E-01 -0.11907006081E-01 -0.12385066346E+00  0.12921658518E+00  0.20171330477E-01 0.  0.
         14    1    1    2    0    0 -0.23400329549E-01 -0.32292866295E-02  0.10319156799E-01  0.25777678564E-01  0.00000000000E+00 0.  1.
     999901    1    3    3    0    0  0.51848170938E-01  0.15136292711E-01  0.11353150666E+00  0.88893573625E+00  0.88000000000E+00 0. -1.
        -11    1    4    4    0    0 -0.14506851837E-01 -0.29391859475E-02 -0.93177044621E-01  0.94346755798E-01  0.51100000000E-03 0.  1.
         11    1    4    4    0    0 -0.13940989551E-01 -0.89678201339E-02 -0.30673618837E-01  0.34869829383E-01  0.51100000000E-03 0. -1.
</event>
<event>
 8    1  0.1093753E+005  0.1043930E+01  0.7957747E-01            NaN
         13   -1    0    0    0    0  0.00000000000E+00  0.00000000000E+00  0.74505805969E-08  0.10566000000E+00  0.10566000000E+00 0. -1.
     999900   -1    0    0    0    0 -0.00000000000E+00 -0.00000000000E+00 -0.74505805969E-08  0.93827000000E+00  0.93827000000E+00 0.  1.
     999902    2    1    2    0    0  0.74849687946E-02 -0.11991344311E-02 -0.20866919617E-01  0.10217288510E+01  0.10214876181E+01 0.  0.
     999903    2    3    3    0    0 -0.41767840706E-01  0.38579907627E-01  0.11431337861E+00  0.12915844795E+00  0.19529320487E-01 0.  0.
         14    1    1    2    0    0 -0.74849687946E-02  0.11991344311E-02  0.20866919617E-01  0.22201148969E-01  0.00000000000E+00 0. -1.
     999901    1    3    3    0    0  0.49252809500E-01 -0.39779042059E-01 -0.13518029822E+00  0.89257040308E+00  0.88000000000E+00 0.  1.
        -11    1    4    4    0    0 -0.34202324902E-01  0.19432836492E-01  0.79733008135E-01  0.88910336126E-01  0.51100000000E-03 0.  1.
         11    1    4    4    0    0 -0.75655158040E-02  0.19147071136E-01  0.34580370471E-01  0.40248111823E-01  0.51100000000E-03 0. -1.
</event>
<event>
 8    1  0.1093753E+005  0.1043930E+01  0.7957747E-01            NaN
         13   -1    0    0    0    0  0.00000000000E+00  0.00000000000E+00  0.74505805969E-08  0.10566000000E+00  0.10566000000E+00 0. -1.
     999900   -1    0    0    0    0 -0.00000000000E+00 -0.00000000000E+00 -0.74505805969E-08  0.93827000000E+00  0.93827000000E+00 0.  1.
     999902    2    1    2    0    0  0.13250424633E-01 -0.28948376613E-02  0.19621953068E-01  0.10200768057E+01  0.10197978793E+01 0.  0.
     999903    2    3    3    0    0  0.88776833215E-01  0.21109094233E-01  0.95075608823E-01  0.13329967396E+00  0.20062694472E-01 0.  0.
         14    1    1    2    0    0 -0.13250424633E-01  0.28948376613E-02 -0.19621953068E-01  0.23853194341E-01  0.00000000000E+00 0.  1.
     999901    1    3    3    0    0 -0.75526408582E-01 -0.24003931894E-01 -0.75453655755E-01  0.88677713170E+00  0.88000000000E+00 0.  1.
        -11    1    4    4    0    0  0.81051149356E-01  0.16579116033E-01  0.76536058022E-01  0.11270397153E+00  0.51100000000E-03 0. -1.
         11    1    4    4    0    0  0.77256838589E-02  0.45299781997E-02  0.18539550802E-01  0.20595702428E-01  0.51100000000E-03 0.  1.
</event>
<event>
 8    1  0.1093753E+005  0.1043930E+01  0.7957747E-01            NaN
         13   -1    0    0    0    0  0.00000000000E+00  0.00000000000E+00  0.74505805969E-08  0.10566000000E+00  0.10566000000E+00 0. -1.
     999900   -1    0    0    0    0 -0.00000000000E+00 -0.00000000000E+00 -0.74505805969E-08  0.93827000000E+00  0.93827000000E+00 0.  1.
     999902    2    1    2    0    0  0.41182448313E-02 -0.56769889604E-02 -0.25099828686E-01  0.10178687348E+01  0.10175350469E+01 0.  0.
     999903    2    3    3    0    0 -0.75916411218E-01  0.27596220635E-01 -0.10038311191E+00  0.13041156660E+00  0.20138387750E-01 0.  0.
         14    1    1    2    0    0 -0.41182448313E-02  0.56769889604E-02  0.25099828686E-01  0.26061265207E-01  0.00000000000E+00 0. -1.
     999901    1    3    3    0    0  0.80034656050E-01 -0.33273209595E-01  0.75283283221E-01  0.88745716819E+00  0.88000000000E+00 0.  1.
        -11    1    4    4    0    0 -0.17574484068E-01 -0.20238478177E-02 -0.18601081111E-01  0.25675275845E-01  0.51100000000E-03 0. -1.
         11    1    4    4    0    0 -0.58341927151E-01  0.29620068452E-01 -0.81782030796E-01  0.10473629075E+00  0.51100000000E-03 0.  1.
</event>
<event>
 8    1  0.1093753E+005  0.1043930E+01  0.7957747E-01            NaN
         13   -1    0    0    0    0  0.00000000000E+00  0.00000000000E+00  0.74505805969E-08  0.10566000000E+00  0.10566000000E+00 0.  1.
     999900   -1    0    0    0    0 -0.00000000000E+00 -0.00000000000E+00 -0.74505805969E-08  0.93827000000E+00  0.93827000000E+00 0. -1.
     999902    2    1    2    0    0 -0.54737883633E-02  0.16898496194E-01  0.15454206133E-01  0.10203852762E+01  0.10201136004E+01 0.  0.
     999903    2    3    3    0    0  0.73275533690E-01 -0.56658310570E-01  0.89863283324E-01  0.13069500967E+00  0.20647224256E-01 0.  0.
         14    1    1    2    0    0  0.54737883633E-02 -0.16898496194E-01 -0.15454206133E-01  0.23544723822E-01  0.00000000000E+00 0. -1.
     999901    1    3    3    0    0 -0.78749322053E-01  0.73556806764E-01 -0.74409077191E-01  0.88969026650E+00  0.88000000000E+00 0. -1.
        -11    1    4    4    0    0  0.52019816575E-01 -0.28571745698E-01  0.51130058459E-01  0.78338687554E-01  0.51100000000E-03 0.  1.
         11    1    4    4    0    0  0.21255717115E-01 -0.28086564872E-01  0.38733224864E-01  0.52356322118E-01  0.51100000000E-03 0. -1.
</event>
<event>
 8    1  0.1093753E+005  0.1043930E+01  0.7957747E-01            NaN
         13   -1    0    0    0    0  0.00000000000E+00  0.00000000000E+00  0.74505805969E-08  0.10566000000E+00  0.10566000000E+00 0. -1.
     999900   -1    0    0    0    0 -0.00000000000E+00 -0.00000000000E+00 -0.74505805969E-08  0.93827000000E+00  0.93827000000E+00 0.  1.
     999902    2    1    2    0    0  0.59427852707E-02 -0.22146563415E-01  0.41938262403E-02  0.10206195915E+01  0.10203533581E+01 0.  0.
     999903    2    3    3    0    0 -0.66119949340E-01 -0.21761409119E-01  0.10961067621E+00  0.13140313956E+00  0.20171220092E-01 0.  0.
         14    1    1    2    0    0 -0.59427852707E-02  0.22146563415E-01 -0.41938262403E-02  0.23310408542E-01  0.00000000000E+00 0.  1.
     999901    1    3    3    0    0  0.72062734610E-01 -0.38515429621E-03 -0.10541684997E+00  0.88921645190E+00  0.88000000000E+00 0.  1.
        -11    1    4    4    0    0 -0.21371842376E-01 -0.17292521922E-01  0.42141037427E-01  0.50318139049E-01  0.51100000000E-03 0. -1.
         11    1    4    4    0    0 -0.44748106964E-01 -0.44688871966E-02  0.67469638784E-01  0.81085000514E-01  0.51100000000E-03 0.  1.
</event>
<event>
 8    1  0.1093753E+005  0.1043930E+01  0.7957747E-01            NaN
         13   -1    0    0    0    0  0.00000000000E+00  0.00000000000E+00  0.74505805969E-08  0.10566000000E+00  0.10566000000E+00 0. -1.
     999900   -1    0    0    0    0 -0.00000000000E+00 -0.00000000000E+00 -0.74505805969E-08  0.93827000000E+00  0.93827000000E+00 0.  1.
     999902    2    1    2    0    0 -0.11063502861E-02  0.13324865167E-01 -0.19775270018E-01  0.10200587339E+01  0.10197793797E+01 0.  0.
     999903    2    3    3    0    0 -0.97148459921E-01 -0.63963786990E-01 -0.56274177586E-01  0.13071639661E+00  0.19768762452E-01 0.  0.
         14    1    1    2    0    0  0.11063502861E-02 -0.13324865167E-01  0.19775270018E-01  0.23871266137E-01  0.00000000000E+00 0. -1.
     999901    1    3    3    0    0  0.96042109635E-01  0.77288652158E-01  0.36498907567E-01  0.88934233725E+00  0.88000000000E+00 0. -1.
        -11    1    4    4    0    0 -0.22129497589E-01 -0.21429034165E-01 -0.77753459127E-02  0.31774758754E-01  0.51100000000E-03 0.  1.
         11    1    4    4    0    0 -0.75018962332E-01 -0.42534752825E-01 -0.48498831673E-01  0.98941637857E-01  0.51100000000E-03 0. -1.
</event>
<event>
 8    1  0.1093753E+005  0.1043930E+01  0.7957747E-01            NaN
         13   -1    0    0    0    0  0.00000000000E+00  0.00000000000E+00  0.74505805969E-08  0.10566000000E+00  0.10566000000E+00 0. -1.
     999900   -1    0    0    0    0 -0.00000000000E+00 -0.00000000000E+00 -0.74505805969E-08  0.93827000000E+00  0.93827000000E+00 0.  1.
     999902    2    1    2    0    0  0.10484405244E-02  0.23800493468E-01 -0.98091599011E-03  0.10200862395E+01  0.10198075363E+01 0.  0.
     999903    2    3    3    0    0 -0.16216807762E-01 -0.24607642883E-01  0.12468926731E+00  0.12967373320E+00  0.19983562218E-01 0.  0.
         14    1    1    2    0    0 -0.10484405244E-02 -0.23800493468E-01  0.98091599011E-03  0.23843760463E-01  0.00000000000E+00 0.  1.
     999901    1    3    3    0    0  0.17265248286E-01  0.48408136351E-01 -0.12567018330E+00  0.89041250633E+00  0.88000000000E+00 0.  1.
        -11    1    4    4    0    0 -0.18126900514E-01 -0.13991792090E-01  0.62735127057E-01  0.66785567722E-01  0.51100000000E-03 0.  1.
         11    1    4    4    0    0  0.19100927519E-02 -0.10615850793E-01  0.61954140252E-01  0.62888165482E-01  0.51100000000E-03 0. -1.
</event>
<event>
 8    1  0.1093753E+005  0.1043930E+01  0.7957747E-01            NaN
         13   -1    0    0    0    0  0.00000000000E+00  0.00000000000E+00  0.74505805969E-08  0.10566000000E+00  0.10566000000E+00 0.  1.
     999900   -1    0    0    0    0 -0.00000000000E+00 -0.00000000000E+00 -0.74505805969E-08  0.93827000000E+00  0.93827000000E+00 0. -1.
     999902    2    1    2    0    0  0.17580898514E-01  0.67818170369E-02  0.14005959780E-01  0.10204513300E+01  0.10201811942E+01 0.  0.
     999903    2    3    3    0    0 -0.98280014894E-01  0.27845285297E-01 -0.74762971184E-01  0.12818043838E+00  0.20159406812E-01 0.  0.
         14    1    1    2    0    0 -0.17580898514E-01 -0.67818170369E-02 -0.14005959780E-01  0.23478669984E-01  0.00000000000E+00 0.  1.
     999901    1    3    3    0    0  0.11586091341E+00 -0.21063468260E-01  0.88768930964E-01  0.89227089163E+00  0.88000000000E+00 0. -1.
        -11    1    4    4    0    0 -0.70189825079E-01  0.15344385427E-01 -0.61943731638E-01  0.94864897191E-01  0.51100000000E-03 0.  1.
         11    1    4    4    0    0 -0.28090189815E-01  0.12500899870E-01 -0.12819239545E-01  0.33315541192E-01  0.51100000000E-03 0. -1.
</event>
<event>
 7    1  0.1093753E+005  0.1043930E+01  0.7957747E-01            NaN
         13   -1    0    0    0    0  0.00000000000E+00  0.00000000000E+00  0.74505805969E-08  0.10566000000E+00  0.10566000000E+00 0.  1.
     999900   -1    0    0    0    0 -0.00000000000E+00 -0.00000000000E+00 -0.74505805969E-08  0.93827000000E+00  0.93827000000E+00 0. -1.
     999903    2    1    2    0    0  0.52859842404E-01  0.14073538986E-01  0.90324753341E-01  0.10708659448E+00  0.17797477677E-01 0.  0.
         14    1    1    2    0    0 -0.38077315934E-01  0.11132083514E-01  0.27839337675E-01  0.48464770651E-01  0.00000000000E+00 0.  1.
     999901    1    1    2    0    0 -0.14782526470E-01 -0.25205622500E-01 -0.11816409102E+00  0.88837863487E+00  0.88000000000E+00 0. -1.
        -11    1    3    3    0    0  0.30925917317E-01  0.98271569464E-02  0.36696431083E-01  0.48988514478E-01  0.51100000000E-03 0.  1.
         11    1    3    3    0    0  0.21933925087E-01  0.42463820393E-02  0.53628322258E-01  0.58098079997E-01  0.51100000000E-03 0. -1.
</event>
<event>
 8    1  0.1093753E+005  0.1043930E+01  0.7957747E-01            NaN
         13   -1    0    0    0    0  0.00000000000E+00  0.00000000000E+00  0.74505805969E-08  0.10566000000E+00  0.10566000000E+00 0. -1.
     999900   -1    0    0    0    0 -0.00000000000E+00 -0.00000000000E+00 -0.74505805969E-08  0.93827000000E+00  0.93827000000E+00 0. -1.
     999902    2    1    2    0    0 -0.11669054470E-01  0.44016570499E-02 -0.22194195130E-01  0.10184717260E+01  0.10181534919E+01 0.  0.
     999903    2    3    3    0    0 -0.43831363777E-01  0.12003777985E+00 -0.15021357011E-01  0.13029518014E+00  0.20516718980E-01 0.  0.
         14    1    1    2    0    0  0.11669054470E-01 -0.44016570499E-02  0.22194195130E-01  0.25458273988E-01  0.00000000000E+00 0. -1.
     999901    1    3    3    0    0  0.32162309307E-01 -0.11563612280E+00 -0.71728381192E-02  0.88817654588E+00  0.88000000000E+00 0.  1.
        -11    1    4    4    0    0 -0.12775246588E-01  0.27531918367E-01 -0.12075940872E-01  0.32669602435E-01  0.51100000000E-03 0. -1.
         11    1    4    4    0    0 -0.31056117189E-01  0.92505861486E-01 -0.29454161383E-02  0.97625577701E-01  0.51100000000E-03 0.  1.
</event>
<event>
 8    1  0.1093753E+005  0.1043930E+01  0.7957747E-01            NaN
         13   -1    0    0    0    0  0.00000000000E+00  0.00000000000E+00  0.74505805969E-08  0.10566000000E+00  0.10566000000E+00 0. -1.
     999900   -1    0    0    0    0 -0.00000000000E+00 -0.00000000000E+00 -0.74505805969E-08  0.93827000000E+00  0.93827000000E+00 0. -1.
     999902    2    1    2    0    0 -0.98744172213E-03 -0.23933302751E-01  0.59982816794E-02  0.10192367336E+01  0.10189375652E+01 0.  0.
     999903    2    3    3    0    0  0.82172331991E-01  0.99827083684E-02 -0.96509450684E-01  0.12874603800E+00  0.20236640512E-01 0.  0.
         14    1    1    2    0    0  0.98744172213E-03  0.23933302751E-01 -0.59982816794E-02  0.24693266386E-01  0.00000000000E+00 0.  1.
     999901    1    3    3    0    0 -0.83159773713E-01 -0.33916011119E-01  0.10250773236E+00  0.89049069561E+00  0.88000000000E+00 0.  1.
        -11    1    4    4    0    0  0.28802670813E-01  0.96730632216E-04 -0.20551152978E-01  0.35386638898E-01  0.51100000000E-03 0.  1.
         11    1    4    4    0    0  0.53369661178E-01  0.98859777362E-02 -0.75958297706E-01  0.93359399106E-01  0.51100000000E-03 0. -1.
</event>
<event>
 8    1  0.1093753E+005  0.1043930E+01  0.7957747E-01            NaN
         13   -1    0    0    0    0  0.00000000000E+00  0.00000000000E+00  0.74505805969E-08  0.10566000000E+00  0.10566000000E+00 0.  1.
     999900   -1    0    0    0    0 -0.00000000000E+00 -0.00000000000E+00 -0.74505805969E-08  0.93827000000E+00  0.93827000000E+00 0. -1.
     999902    2    1    2    0    0 -0.20937481082E-01  0.82569983009E-02 -0.38343244860E-02  0.10210989208E+01  0.10208436451E+01 0.  0.
     999903    2    3    3    0    0 -0.12855832867E+00 -0.23143072344E-01  0.18316439982E-01  0.13371012906E+00  0.21910293714E-01 0.  0.
         14    1    1    2    0    0  0.20937481082E-01 -0.82569983009E-02  0.38343244860E-02  0.22831079240E-01  0.00000000000E+00 0. -1.
     999901    1    3    3    0    0  0.10762084759E+00  0.31400070645E-01 -0.22150764468E-01  0.88738879170E+00  0.88000000000E+00 0.  1.
        -11    1    4    4    0    0 -0.88620966364E-01 -0.78109995168E-02  0.18774273721E-01  0.90925364269E-01  0.51100000000E-03 0.  1.
         11    1    4    4    0    0 -0.39937362308E-01 -0.15332072828E-01 -0.45783373906E-03  0.42784764789E-01  0.51100000000E-03 0. -1.
</event>
<event>
 8    1  0.1093753E+005  0.1043930E+01  0.7957747E-01            NaN
         13   -1    0    0    0    0  0.00000000000E+00  0.00000000000E+00  0.74505805969E-08  0.10566000000E+00  0.10566000000E+00 0.  1.
     999900   -1    0    0    0    0 -0.00000000000E+00 -0.00000000000E+00 -0.74505805969E-08  0.93827000000E+00  0.93827000000E+00 0. -1.
     999902    2    1    2    0    0  0.23063083300E-01 -0.36924358028E-02 -0.15640390133E-02  0.10205208968E+01  0.10202523780E+01 0.  0.
     999903    2    3    3    0    0  0.79736802873E-01  0.10320583608E+00  0.66549744514E-02  0.13220411594E+00  0.20597020456E-01 0.  0.
         14    1    1    2    0    0 -0.23063083300E-01  0.36924358028E-02  0.15640390133E-02  0.23409103176E-01  0.00000000000E+00 0. -1.
     999901    1    3    3    0    0 -0.56673719573E-01 -0.10689827189E+00 -0.82190134647E-02  0.88831678089E+00  0.88000000000E+00 0.  1.
        -11    1    4    4    0    0  0.53885520490E-01  0.57168257892E-01  0.10506351772E-01  0.79262245600E-01  0.51100000000E-03 0.  1.
         11    1    4    4    0    0  0.25851282383E-01  0.46037578192E-01 -0.38513773210E-02  0.52941870338E-01  0.51100000000E-03 0. -1.
</event>
<event>
 8    1  0.1093753E+005  0.1043930E+01  0.7957747E-01            NaN
         13   -1    0    0    0    0  0.00000000000E+00  0.00000000000E+00  0.74505805969E-08  0.10566000000E+00  0.10566000000E+00 0.  1.
     999900   -1    0    0    0    0 -0.00000000000E+00 -0.00000000000E+00 -0.74505805969E-08  0.93827000000E+00  0.93827000000E+00 0. -1.
     999902    2    1    2    0    0 -0.23462295765E-01  0.28622121472E-02  0.23947640696E-02  0.10201727595E+01  0.10198960990E+01 0.  0.
     999903    2    3    3    0    0  0.26802117817E-01 -0.11766199278E+00  0.40503415662E-01  0.12972070320E+00  0.24984717208E-01 0.  0.
         14    1    1    2    0    0  0.23462295765E-01 -0.28622121472E-02 -0.23947640696E-02  0.23757240494E-01  0.00000000000E+00 0.  1.
     999901    1    3    3    0    0 -0.50264413582E-01  0.12052420493E+00 -0.38108651593E-01  0.89045205630E+00  0.88000000000E+00 0. -1.
        -11    1    4    4    0    0  0.31400429241E-01 -0.10210528393E+00  0.32746095774E-01  0.11173201811E+00  0.51100000000E-03 0. -1.
         11    1    4    4    0    0 -0.45983114241E-02 -0.15556708858E-01  0.77573198885E-02  0.17988685091E-01  0.51100000000E-03 0.  1.
</event>
<event>
 8    1  0.1093753E+005  0.1043930E+01  0.7957747E-01            NaN
         13   -1    0    0    0    0  0.00000000000E+00  0.00000000000E+00  0.74505805969E-08  0.10566000000E+00  0.10566000000E+00 0. -1.
     999900   -1    0    0    0    0 -0.00000000000E+00 -0.00000000000E+00 -0.74505805969E-08  0.93827000000E+00  0.93827000000E+00 0.  1.
     999902    2    1    2    0    0  0.18182057335E-01  0.26555988123E-02  0.15742963494E-01  0.10197332995E+01  0.10194461839E+01 0.  0.
     999903    2    3    3    0    0  0.34665757764E-01 -0.82975273080E-01 -0.90331099710E-01  0.12908406134E+00  0.20405308475E-01 0.  0.
         14    1    1    2    0    0 -0.18182057335E-01 -0.26555988123E-02 -0.15742963494E-01  0.24196700469E-01  0.00000000000E+00 0.  1.
     999901    1    3    3    0    0 -0.16483700429E-01  0.85630871892E-01  0.10607406320E+00  0.89064923819E+00  0.88000000000E+00 0. -1.
        -11    1    4    4    0    0  0.96268494587E-02 -0.20899698189E-01 -0.36662908307E-01  0.43288607987E-01  0.51100000000E-03 0.  1.
         11    1    4    4    0    0  0.25038908306E-01 -0.62075574891E-01 -0.53668191403E-01  0.85795453356E-01  0.51100000000E-03 0. -1.
</event>
<event>
 8    1  0.1093753E+005  0.1043930E+01  0.7957747E-01            NaN
         13   -1    0    0    0    0  0.00000000000E+00  0.00000000000E+00  0.74505805969E-08  0.10566000000E+00  0.10566000000E+00 0. -1.
     999900   -1    0    0    0    0 -0.00000000000E+00 -0.00000000000E+00 -0.74505805969E-08  0.93827000000E+00  0.93827000000E+00 0. -1.
     999902    2    1    2    0    0 -0.18416117754E-01  0.11602766157E-01 -0.83218909604E-02  0.10206269649E+01  0.10203609019E+01 0.  0.
     999903    2    3    3    0    0  0.11816505813E+00  0.18065453509E-01  0.42930604317E-01  0.12859389253E+00  0.20100020773E-01 0.  0.
         14    1    1    2    0    0  0.18416117754E-01 -0.11602766157E-01  0.83218909604E-02  0.23303035098E-01  0.00000000000E+00 0. -1.
     999901    1    3    3    0    0 -0.13658117589E+00 -0.64626873523E-02 -0.51252495278E-01  0.89203307237E+00  0.88000000000E+00 0. -1.
        -11    1    4    4    0    0  0.22258215302E-01  0.16923408196E-02  0.16526245199E-01  0.27778950075E-01  0.51100000000E-03 0. -1.
         11    1    4    4    0    0  0.95906842829E-01  0.16373112690E-01  0.26404359118E-01  0.10081494245E+00  0.51100000000E-03 0.  1.
</event>
<event>
 8    1  0.1093753E+005  0.1043930E+01  0.7957747E-01            NaN
         13   -1    0    0    0    0  0.00000000000E+00  0.00000000000E+00  0.74505805969E-08  0.10566000000E+00  0.10566000000E+00 0.  1.
     999900   -1    0    0    0    0 -0.00000000000E+00 -0.00000000000E+00 -0.74505805969E-08  0.93827000000E+00  0.93827000000E+00 0.  1.
     999902    2    1    2    0    0  0.11673689379E-01  0.18947815251E-01  0.79386509183E-02  0.10203012695E+01  0.10200276289E+01 0.  0.
     999903    2    3    3    0    0  0.59875466105E-01  0.34671749458E-01  0.11089666220E+00  0.13284929589E+00  0.23741610687E-01 0.  0.
         14    1    1    2    0    0 -0.11673689379E-01 -0.18947815251E-01 -0.79386509183E-02  0.23628730497E-01  0.00000000000E+00 0.  1.
     999901    1    3    3    0    0 -0.48201776727E-01 -0.15723934208E-01 -0.10295801129E+00  0.88745197362E+00  0.88000000000E+00 0.  1.
        -11    1    4    4    0    0  0.41818432572E-01  0.26041522442E-01  0.56923028944E-01  0.75282365392E-01  0.51100000000E-03 0.  1.
         11    1    4    4    0    0  0.18057033533E-01  0.86302270164E-02  0.53973633260E-01  0.57566930496E-01  0.51100000000E-03 0. -1.
</event>
<event>
 8    1  0.1093753E+005  0.1043930E+01  0.7957747E-01            NaN
         13   -1    0    0    0    0  0.00000000000E+00  0.00000000000E+00  0.74505805969E-08  0.10566000000E+00  0.10566000000E+00 0. -1.
     999900   -1    0    0    0    0 -0.00000000000E+00 -0.00000000000E+00 -0.74505805969E-08  0.93827000000E+00  0.93827000000E+00 0.  1.
     999902    2    1    2    0    0  0.18159048422E-03 -0.18193944505E-01  0.12259175630E-01  0.10219905383E+01  0.10217550198E+01 0.  0.
     999903    2    3    3    0    0 -0.12875983739E+00 -0.20019959122E-01  0.14990030370E-01  0.13258810763E+00  0.19365195203E-01 0.  0.
         14    1    1    2    0    0 -0.18159048422E-03  0.18193944505E-01 -0.12259175630E-01  0.21939461681E-01  0.00000000000E+00 0.  1.
     999901    1    3    3    0    0  0.12894142788E+00  0.18260146179E-02 -0.27308547402E-02  0.88940243069E+00  0.88000000000E+00 0.  1.
        -11    1    4    4    0    0 -0.42577689393E-01  0.12715836805E-02  0.94846627316E-02  0.43642828818E-01  0.51100000000E-03 0. -1.
         11    1    4    4    0    0 -0.86182147999E-01 -0.21291542803E-01  0.55053676382E-02  0.88945278809E-01  0.51100000000E-03 0.  1.
</event>
<event>
 8    1  0.1093753E+005  0.1043930E+01  0.7957747E-01            NaN
         13   -1    0    0    0    0  0.00000000000E+00  0.00000000000E+00  0.74505805969E-08  0.10566000000E+00  0.10566000000E+00 0.  1.
     999900   -1    0    0    0    0 -0.00000000000E+00 -0.00000000000E+00 -0.74505805969E-08  0.93827000000E+00  0.93827000000E+00 0.  1.
     999902    2    1    2    0    0 -0.12235297854E-02  0.15536389662E-01 -0.18143576942E-01  0.10200121027E+01  0.10197316430E+01 0.  0.
     999903    2    3    3    0    0 -0.12579263926E+00 -0.16409408277E-01  0.21027300806E-01  0.12980293920E+00  0.17708723148E-01 0.  0.
         14    1    1    2    0    0  0.12235297854E-02 -0.15536389662E-01  0.18143576942E-01  0.23917897339E-01  0.00000000000E+00 0.  1.
     999901    1    3    3    0    0  0.12456910947E+00  0.31945797939E-01 -0.39170877748E-01  0.89020916346E+00  0.88000000000E+00 0.  1.
        -11    1    4    4    0    0 -0.82148269834E-01 -0.41111400947E-02  0.81063440456E-02  0.82651156340E-01  0.51100000000E-03 0.  1.
         11    1    4    4    0    0 -0.43644369423E-01 -0.12298268182E-01  0.12920956761E-01  0.47151782863E-01  0.51100000000E-03 0. -1.
</event>
<event>
 8    1  0.1093753E+005  0.1043930E+01  0.7957747E-01            NaN
         13   -1    0    0    0    0  0.00000000000E+00  0.00000000000E+00  0.74505805969E-08  0.10566000000E+00  0.10566000000E+00 0. -1.
     999900   -1    0    0    0    0 -0.00000000000E+00 -0.00000000000E+00 -0.74505805969E-08  0.93827000000E+00  0.93827000000E+00 0. -1.
     999902    2    1    2    0    0 -0.12317188552E-01  0.90334071838E-03  0.21621400900E-01  0.10190299170E+01  0.10187256537E+01 0.  0.
     999903    2    3    3    0    0 -0.98331107481E-01  0.62200527060E-01  0.58883985117E-01  0.13193114034E+00  0.20014740162E-01 0.  0.
         14    1    1    2    0    0  0.12317188552E-01 -0.90334071838E-03 -0.21621400900E-01  0.24900083035E-01  0.00000000000E+00 0.  1.
     999901    1    3    3    0    0  0.86013918929E-01 -0.61297186342E-01 -0.37262584217E-01  0.88709877662E+00  0.88000000000E+00 0.  1.
        -11    1    4    4    0    0 -0.27750544584E-01  0.17978317758E-01  0.27194545984E-01  0.42814916634E-01  0.51100000000E-03 0.  1.
         11    1    4    4    0    0 -0.70580562897E-01  0.44222209302E-01  0.31689439133E-01  0.89116223708E-01  0.51100000000E-03 0. -1.
</event>
<event>
 8    1  0.1093753E+005  0.1043930E+01  0.7957747E-01            NaN
         13   -1    0    0    0    0  0.00000000000E+00  0.00000000000E+00  0.74505805969E-08  0.10566000000E+00  0.10566000000E+00 0. -1.
     999900   -1    0    0    0    0 -0.00000000000E+00 -0.00000000000E+00 -0.74505805969E-08  0.93827000000E+00  0.93827000000E+00 0. -1.
     999902    2    1    2    0    0  0.12725214261E-01  0.34197786269E-02  0.18424136585E-01  0.10212788461E+01  0.10210276229E+01 0.  0.
     999903    2    3    3    0    0  0.18933469400E-01  0.12817428581E+00  0.18438797269E-01  0.13245815007E+00  0.20446233562E-01 0.  0.
         14    1    1    2    0    0 -0.12725214261E-01 -0.34197786269E-02 -0.18424136585E-01  0.22651153894E-01  0.00000000000E+00 0.  1.
     999901    1    3    3    0    0 -0.62082551388E-02 -0.12475450719E+00 -0.14660684613E-04  0.88882069604E+00  0.88000000000E+00 0. -1.
        -11    1    4    4    0    0  0.17838954690E-01  0.73376498149E-01  0.18062787399E-01  0.77645760957E-01  0.51100000000E-03 0.  1.
         11    1    4    4    0    0  0.10945147102E-02  0.54797787664E-01  0.37600986980E-03  0.54812389108E-01  0.51100000000E-03 0. -1.
</event>
<event>
 8    1  0.1093753E+005  0.1043930E+01  0.7957747E-01            NaN
         13   -1    0    0    0    0  0.00000000000E+00  0.00000000000E+00  0.74505805969E-08  0.10566000000E+00  0.10566000000E+00 0. -1.
     999900   -1    0    0    0    0 -0.00000000000E+00 -0.00000000000E+00 -0.74505805969E-08  0.93827000000E+00  0.93827000000E+00 0. -1.
     999902    2    1    2    0    0 -0.12576449808E-01  0.17008884255E-01 -0.10694547137E-01  0.10202267814E+01  0.10199513924E+01 0.  0.
     999903    2    3    3    0    0  0.10691852431E+00 -0.37705865302E-01  0.55772309974E-01  0.12798769027E+00  0.20420459900E-01 0.  0.
         14    1    1    2    0    0  0.12576449808E-01 -0.17008884255E-01  0.10694547137E-01  0.23703218596E-01  0.00000000000E+00 0.  1.
     999901    1    3    3    0    0 -0.11949497411E+00  0.54714749556E-01 -0.66466857111E-01  0.89223909114E+00  0.88000000000E+00 0. -1.
        -11    1    4    4    0    0  0.90976210601E-02 -0.15652737852E-02  0.11341376072E-01  0.14632317765E-01  0.51100000000E-03 0. -1.
         11    1    4    4    0    0  0.97820903245E-01 -0.36140591517E-01  0.44430933903E-01  0.11335537250E+00  0.51100000000E-03 0.  1.
</event>
<event>
 8    1  0.1093753E+005  0.1043930E+01  0.7957747E-01            NaN
         13   -1    0    0    0    0  0.00000000000E+00  0.00000000000E+00  0.74505805969E-08  0.10566000000E+00  0.10566000000E+00 0.  1.
     999900   -1    0    0    0    0 -0.00000000000E+00 -0.00000000000E+00 -0.74505805969E-08  0.93827000000E+00  0.93827000000E+00 0. -1.
     999902    2    1    2    0    0  0.11135559635E-01  0.90444583882E-02  0.16947885883E-01  0.10217256366E+01  0.10214843331E+01 0.  0.
     999903    2    3    3    0    0  0.98247181502E-01 -0.44222895864E-01 -0.72180254636E-01  0.13134949640E+00  0.20845331693E-01 0.  0.
         14    1    1    2    0    0 -0.11135559635E-01 -0.90444583882E-02 -0.16947885883E-01  0.22204363351E-01  0.00000000000E+00 0. -1.
     999901    1    3    3    0    0 -0.87111621868E-01  0.53267354252E-01  0.89128140519E-01  0.89037614025E+00  0.88000000000E+00 0.  1.
        -11    1    4    4    0    0  0.78868275893E-01 -0.39288405806E-01 -0.66978396954E-01  0.11068039823E+00  0.51100000000E-03 0.  1.
         11    1    4    4    0    0  0.19378905610E-01 -0.49344900585E-02 -0.52018576819E-02  0.20669098169E-01  0.51100000000E-03 0. -1.
</event>
<event>
 8    1  0.1093753E+005  0.1043930E+01  0.7957747E-01            NaN
         13   -1    0    0    0    0  0.00000000000E+00  0.00000000000E+00  0.74505805969E-08  0.10566000000E+00  0.10566000000E+00 0.  1.
     999900   -1    0    0    0    0 -0.00000000000E+00 -0.00000000000E+00 -0.74505805969E-08  0.93827000000E+00  0.93827000000E+00 0.  1.
     999902    2    1    2    0    0  0.16400900112E-01  0.14467592862E-01  0.72846482086E-02  0.10208786038E+01  0.10206183208E+01 0.  0.
     999903    2    3    3    0    0  0.10267910511E+00 -0.16163626180E-01  0.80650097625E-01  0.13309220526E+00  0.20120522295E-01 0.  0.
         14    1    1    2    0    0 -0.16400900112E-01 -0.14467592862E-01 -0.72846482086E-02  0.23051396210E-01  0.00000000000E+00 0. -1.
     999901    1    3    3    0    0 -0.86278205001E-01  0.30631219042E-01 -0.73365449416E-01  0.88778639853E+00  0.88000000000E+00 0.  1.
        -11    1    4    4    0    0  0.57814301614E-01 -0.11253797702E-01  0.33243377018E-01  0.67635232463E-01  0.51100000000E-03 0.  1.
         11    1    4    4    0    0  0.44864803499E-01 -0.49098284785E-02  0.47406720607E-01  0.65456972802E-01  0.51100000000E-03 0. -1.
</event>
<event>
 8    1  0.1093753E+005  0.1043930E+01  0.7957747E-01            NaN
         13   -1    0    0    0    0  0.00000000000E+00  0.00000000000E+00  0.74505805969E-08  0.10566000000E+00  0.10566000000E+00 0.  1.
     999900   -1    0    0    0    0 -0.00000000000E+00 -0.00000000000E+00 -0.74505805969E-08  0.93827000000E+00  0.93827000000E+00 0. -1.
     999902    2    1    2    0    0  0.13734008272E-01 -0.13165486720E-01  0.11670785688E-01  0.10216104959E+01  0.10213666556E+01 0.  0.
     999903    2    3    3    0    0 -0.53133747801E-01  0.73520271922E-01 -0.90495083230E-01  0.12896074248E+00  0.14597515960E-01 0.  0.
         14    1    1    2    0    0 -0.13734008272E-01  0.13165486720E-01 -0.11670785688E-01  0.22319504079E-01  0.00000000000E+00 0. -1.
     999901    1    3    3    0    0  0.66867756073E-01 -0.86685758642E-01  0.10216586892E+00  0.89264975344E+00  0.88000000000E+00 0.  1.
        -11    1    4    4    0    0 -0.49023334408E-01  0.69157516542E-01 -0.78473588006E-01  0.11551802693E+00  0.51100000000E-03 0.  1.
         11    1    4    4    0    0 -0.41104133929E-02  0.43627553798E-02 -0.12021495224E-01  0.13442715543E-01  0.51100000000E-03 0. -1.
</event>
<event>
 8    1  0.1093753E+005  0.1043930E+01  0.7957747E-01            NaN
         13   -1    0    0    0    0  0.00000000000E+00  0.00000000000E+00  0.74505805969E-08  0.10566000000E+00  0.10566000000E+00 0.  1.
     999900   -1    0    0    0    0 -0.00000000000E+00 -0.00000000000E+00 -0.74505805969E-08  0.93827000000E+00  0.93827000000E+00 0.  1.
     999902    2    1    2    0    0 -0.23690432158E-01 -0.71804724544E-02 -0.52522214732E-02  0.10186242380E+01  0.10183098530E+01 0.  0.
     999903    2    3    3    0    0  0.86529945532E-01 -0.45117526977E-01  0.78253377490E-01  0.12701841879E+00  0.22069547125E-01 0.  0.
         14    1    1    2    0    0  0.23690432158E-01  0.71804724544E-02  0.52522214732E-02  0.25305762010E-01  0.00000000000E+00 0.  1.
     999901    1    3    3    0    0 -0.11022037769E+00  0.37937054523E-01 -0.83505598963E-01  0.89160581919E+00  0.88000000000E+00 0.  1.
        -11    1    4    4    0    0  0.64423319343E-01 -0.22057587120E-01  0.52674645310E-01  0.86091698812E-01  0.51100000000E-03 0.  1.
         11    1    4    4    0    0  0.22106626189E-01 -0.23059939857E-01  0.25578732179E-01  0.40926719983E-01  0.51100000000E-03 0. -1.
</event>
<event>
 8    1  0.1093753E+005  0.1043930E+01  0.7957747E-01            NaN
         13   -1    0    0    0    0  0.00000000000E+00  0.00000000000E+00  0.74505805969E-08  0.10566000000E+00  0.10566000000E+00 0. -1.
     999900   -1    0    0    0    0 -0.00000000000E+00 -0.00000000000E+00 -0.74505805969E-08  0.93827000000E+00  0.93827000000E+00 0. -1.
     999902    2    1    2    0    0  0.19694519692E-01 -0.91571155064E-02 -0.95405352396E-02  0.10202076754E+01  0.10199318371E+01 0.  0.
     999903    2    3    3    0    0  0.69305953794E-01  0.56843352861E-02  0.10906425367E+00  0.13074229724E+00  0.19050195753E-01 0.  0.
         14    1    1    2    0    0 -0.19694519692E-01  0.91571155064E-02  0.95405352396E-02  0.23722324569E-01  0.00000000000E+00 0.  1.
     999901    1    3    3    0    0 -0.49611434101E-01 -0.14841450792E-01 -0.11860478891E+00  0.88946537820E+00  0.88000000000E+00 0. -1.
        -11    1    4    4    0    0  0.38590406250E-01 -0.62983059492E-02  0.60793060057E-01  0.72283783690E-01  0.51100000000E-03 0. -1.
         11    1    4    4    0    0  0.30715547543E-01  0.11982641235E-01  0.48271193616E-01  0.58458513546E-01  0.51100000000E-03 0.  1.
</event>
<event>
 8    1  0.1093753E+005  0.1043930E+01  0.7957747E-01            NaN
         13   -1    0    0    0    0  0.00000000000E+00  0.00000000000E+00  0.74505805969E-08  0.10566000000E+00  0.10566000000E+00 0.  1.
     999900   -1    0    0    0    0 -0.00000000000E+00 -0.00000000000E+00 -0.74505805969E-08  0.93827000000E+00  0.93827000000E+00 0.  1.
     999902    2    1    2    0    0 -0.32496258915E-02  0.10506322811E-01 -0.19971799271E-01  0.10211305339E+01  0.10208759727E+01 0.  0.
     999903    2    3    3    0    0  0.12174062312E+00  0.45327762954E-01 -0.50952459106E-02  0.13149217656E+00  0.19719167196E-01 0.  0.
         14    1    1    2    0    0  0.32496258915E-02 -0.10506322811E-01  0.19971799271E-01  0.22799466080E-01  0.00000000000E+00 0.  1.
     999901    1    3    3    0    0 -0.12499024901E+00 -0.34821440143E-01 -0.14876553360E-01  0.88963835736E+00  0.88000000000E+00 0.  1.
        -11    1    4    4    0    0  0.35382294570E-01  0.13985516085E-01  0.74384072139E-02  0.38769736291E-01  0.51100000000E-03 0. -1.
         11    1    4    4    0    0  0.86358328547E-01  0.31342246869E-01 -0.12533653125E-01  0.92722440272E-01  0.51100000000E-03 0.  1.
</event>
<event>
 8    1  0.1093753E+005  0.1043930E+01  0.7957747E-01            NaN
         13   -1    0    0    0    0  0.00000000000E+00  0.00000000000E+00  0.74505805969E-08  0.10566000000E+00  0.10566000000E+00 0.  1.
     999900   -1    0    0    0    0 -0.00000000000E+00 -0.00000000000E+00 -0.74505805969E-08  0.93827000000E+00  0.93827000000E+00 0. -1.
     999902    2    1    2    0    0 -0.52827682919E-02  0.22504249799E-01 -0.91953908799E-02  0.10190522165E+01  0.10187485047E+01 0.  0.
     999903    2    3    3    0    0  0.24075221634E-01  0.93926747953E-01  0.85343356807E-01  0.13062628280E+00  0.19439313982E-01 0.  0.
         14    1    1    2    0    0  0.52827682919E-02 -0.22504249799E-01  0.91953908799E-02  0.24877783528E-01  0.00000000000E+00 0. -1.
     999901    1    3    3    0    0 -0.29357989926E-01 -0.71422498154E-01 -0.94538747687E-01  0.88842593368E+00  0.88000000000E+00 0.  1.
        -11    1    4    4    0    0  0.68572902045E-02  0.38175421623E-01  0.22385774701E-01  0.44785815556E-01  0.51100000000E-03 0.  1.
         11    1    4    4    0    0  0.17217931430E-01  0.55751326330E-01  0.62957582106E-01  0.85840467239E-01  0.51100000000E-03 0. -1.
</event>
<event>
 8    1  0.1093753E+005  0.1043930E+01  0.7957747E-01            NaN
         13   -1    0    0    0    0  0.00000000000E+00  0.00000000000E+00  0.74505805969E-08  0.10566000000E+00  0.10566000000E+00 0.  1.
     999900   -1    0    0    0    0 -0.00000000000E+00 -0.00000000000E+00 -0.74505805969E-08  0.93827000000E+00  0.93827000000E+00 0.  1.
     999902    2    1    2    0    0  0.84133458588E-02 -0.18806797704E-01 -0.13073333525E-01  0.10195293427E+01  0.10192373073E+01 0.  0.
     999903    2    3    3    0    0 -0.54192318008E-01  0.72578720323E-01  0.86704903362E-01  0.12698999978E+00  0.20105765419E-01 0.  0.
         14    1    1    2    0    0 -0.84133458588E-02  0.18806797704E-01  0.13073333525E-01  0.24400657325E-01  0.00000000000E+00 0.  1.
     999901    1    3    3    0    0  0.62605663867E-01 -0.91385518028E-01 -0.99778236887E-01  0.89253934289E+00  0.88000000000E+00 0. -1.
        -11    1    4    4    0    0 -0.41929400348E-01  0.66697416657E-01  0.69540113187E-01  0.10508429219E+00  0.51100000000E-03 0. -1.
         11    1    4    4    0    0 -0.12262917660E-01  0.58813036656E-02  0.17164790175E-01  0.21905707591E-01  0.51100000000E-03 0.  1.
</event>
<event>
 8    1  0.1093753E+005  0.1043930E+01  0.7957747E-01            NaN
         13   -1    0    0    0    0  0.00000000000E+00  0.00000000000E+00  0.74505805969E-08  0.10566000000E+00  0.10566000000E+00 0.  1.
     999900   -1    0    0    0    0 -0.00000000000E+00 -0.00000000000E+00 -0.74505805969E-08  0.93827000000E+00  0.93827000000E+00 0.  1.
     999902    2    1    2    0    0 -0.10363078298E-01  0.84637226120E-02 -0.20231430867E-01  0.10196743040E+01  0.10193857697E+01 0.  0.
     999903    2    3    3    0    0  0.44063414516E-01  0.10779694499E+00 -0.57804803027E-01  0.13161963764E+00  0.20507752477E-01 0.  0.
         14    1    1    2    0    0  0.10363078298E-01 -0.84637226120E-02  0.20231430867E-01  0.24255695974E-01  0.00000000000E+00 0.  1.
     999901    1    3    3    0    0 -0.54426492814E-01 -0.99333222381E-01  0.37573372160E-01  0.88805466638E+00  0.88000000000E+00 0. -1.
        -11    1    4    4    0    0  0.24686627951E-01  0.83978805123E-01 -0.42281387050E-01  0.97210319006E-01  0.51100000000E-03 0. -1.
         11    1    4    4    0    0  0.19376786564E-01  0.23818139871E-01 -0.15523415976E-01  0.34409318637E-01  0.51100000000E-03 0.  1.
</event>
<event>
 8    1  0.1093753E+005  0.1043930E+01  0.7957747E-01            NaN
         13   -1    0    0    0    0  0.00000000000E+00  0.00000000000E+00  0.74505805969E-08  0.10566000000E+00  0.10566000000E+00 0. -1.
     999900   -1    0    0    0    0 -0.00000000000E+00 -0.00000000000E+00 -0.74505805969E-08  0.93827000000E+00  0.93827000000E+00 0. -1.
     999902    2    1    2    0    0  0.18896846011E-01  0.11531550335E-01 -0.85966813556E-03  0.10217758475E+01  0.10215356460E+01 0.  0.
     999903    2    3    3    0    0 -0.22464217754E-01  0.11376563853E+00 -0.61517223109E-01  0.13282034507E+00  0.20238916372E-01 0.  0.
         14    1    1    2    0    0 -0.18896846011E-01 -0.11531550335E-01  0.85966813556E-03  0.22154152468E-01  0.00000000000E+00 0. -1.
     999901    1    3    3    0    0  0.41361063765E-01 -0.10223408819E+00  0.60657554974E-01  0.88895550246E+00  0.88000000000E+00 0.  1.
        -11    1    4    4    0    0 -0.10925314227E-02  0.59469367370E-02 -0.93623752806E-02  0.11156830794E-01  0.51100000000E-03 0. -1.
         11    1    4    4    0    0 -0.21371686331E-01  0.10781870179E+00 -0.52154847829E-01  0.12166351427E+00  0.51100000000E-03 0.  1.
</event>
<event>
 8    1  0.1093753E+005  0.1043930E+01  0.7957747E-01            NaN
         13   -1    0    0    0    0  0.00000000000E+00  0.00000000000E+00  0.74505805969E-08  0.10566000000E+00  0.10566000000E+00 0.  1.
     999900   -1    0    0    0    0 -0.00000000000E+00 -0.00000000000E+00 -0.74505805969E-08  0.93827000000E+00  0.93827000000E+00 0.  1.
     999902    2    1    2    0    0 -0.53173779105E-02  0.10674382649E-01  0.21603422667E-01  0.10192535978E+01  0.10189548429E+01 0.  0.
     999903    2    3    3    0    0 -0.12817561375E+00 -0.37337535431E-02  0.14664709340E-01  0.13057486722E+00  0.19794276277E-01 0.  0.
         14    1    1    2    0    0  0.53173779105E-02 -0.10674382649E-01 -0.21603422667E-01  0.24676402164E-01  0.00000000000E+00 0. -1.
     999901    1    3    3    0    0  0.12285823584E+00  0.14408136192E-01  0.69387133271E-02  0.88867873061E+00  0.88000000000E+00 0. -1.
        -11    1    4    4    0    0 -0.11911385565E-01 -0.45683467982E-02 -0.26058568045E-02  0.13030829185E-01  0.51100000000E-03 0. -1.
         11    1    4    4    0    0 -0.11626422819E+00  0.83459325514E-03  0.17270566145E-01  0.11754403804E+00  0.51100000000E-03 0.  1.
</event>
<event>
 8    1  0.1093753E+005  0.1043930E+01  0.7957747E-01            NaN
         13   -1    0    0    0    0  0.00000000000E+00  0.00000000000E+00  0.74505805969E-08  0.10566000000E+00  0.10566000000E+00 0.  1.
     999900   -1    0    0    0    0 -0.00000000000E+00 -0.00000000000E+00 -0.74505805969E-08  0.93827000000E+00  0.93827000000E+00 0. -1.
     999902    2    1    2    0    0  0.11546715261E-01 -0.98891613793E-02  0.18217299172E-01  0.10202025447E+01  0.10199265856E+01 0.  0.
     999903    2    3    3    0    0 -0.12673907598E-01 -0.92696002941E-01  0.92802254791E-01  0.13284324476E+00  0.16789648255E-01 0.  0.
         14    1    1    2    0    0 -0.11546715261E-01  0.98891613793E-02 -0.18217299172E-01  0.23727455305E-01  0.00000000000E+00 0. -1.
     999901    1    3    3    0    0  0.24220622859E-01  0.82806841561E-01 -0.74584955619E-01  0.88735929994E+00  0.88000000000E+00 0. -1.
        -11    1    4    4    0    0 -0.56084359696E-02 -0.62636754632E-01  0.51582195573E-01  0.81337578068E-01  0.51100000000E-03 0.  1.
         11    1    4    4    0    0 -0.70654716283E-02 -0.30059248308E-01  0.41220059218E-01  0.51505666690E-01  0.51100000000E-03 0. -1.
</event>
<event>
 8    1  0.1093753E+005  0.1043930E+01  0.7957747E-01            NaN
         13   -1    0    0    0    0  0.00000000000E+00  0.00000000000E+00  0.74505805969E-08  0.10566000000E+00  0.10566000000E+00 0. -1.
     999900   -1    0    0    0    0 -0.00000000000E+00 -0.00000000000E+00 -0.74505805969E-08  0.93827000000E+00  0.93827000000E+00 0.  1.
     999902    2    1    2    0    0  0.20314295296E-01  0.63243116041E-05  0.12835113610E-01  0.10199006268E+01  0.10196175155E+01 0.  0.
     999903    2    3    3    0    0 -0.28559669424E-01  0.11093105567E-01 -0.12276153674E+00  0.12810578903E+00  0.20049602772E-01 0.  0.
         14    1    1    2    0    0 -0.20314295296E-01 -0.63243116041E-05 -0.12835113610E-01  0.24029373166E-01  0.00000000000E+00 0.  1.
     999901    1    3    3    0    0  0.48873964720E-01 -0.11086781256E-01  0.13559665035E+00  0.89179483780E+00  0.88000000000E+00 0. -1.
        -11    1    4    4    0    0 -0.19679527450E-01  0.46493930111E-02 -0.42183124615E-01  0.46782237861E-01  0.51100000000E-03 0. -1.
         11    1    4    4    0    0 -0.88801419743E-02  0.64437125564E-02 -0.80578412126E-01  0.81323551169E-01  0.51100000000E-03 0.  1.
</event>
<event>
 8    1  0.1093753E+005  0.1043930E+01  0.7957747E-01            NaN
         13   -1    0    0    0    0  0.00000000000E+00  0.00000000000E+00  0.74505805969E-08  0.10566000000E+00  0.10566000000E+00 0. -1.
     999900   -1    0    0    0    0 -0.00000000000E+00 -0.00000000000E+00 -0.74505805969E-08  0.93827000000E+00  0.93827000000E+00 0. -1.
     999902    2    1    2    0    0  0.80069738908E-02 -0.91840790482E-02  0.22070230183E-01  0.10187198037E+01  0.10184078183E+01 0.  0.
     999903    2    3    3    0    0  0.73203555582E-01 -0.77883574352E-01 -0.68966634547E-01  0.12896819470E+00  0.21255278392E-01 0.  0.
         14    1    1    2    0    0 -0.80069738908E-02  0.91840790482E-02 -0.22070230183E-01  0.25210196334E-01  0.00000000000E+00 0.  1.
     999901    1    3    3    0    0 -0.65196581692E-01  0.68699495304E-01  0.91036864730E-01  0.88975160897E+00  0.88000000000E+00 0.  1.
        -11    1    4    4    0    0  0.13898433047E-01 -0.17367750127E-01 -0.50076480589E-02  0.22806640386E-01  0.51100000000E-03 0.  1.
         11    1    4    4    0    0  0.59305122536E-01 -0.60515824225E-01 -0.63958986488E-01  0.10616155431E+00  0.51100000000E-03 0. -1.
</event>
<event>
 8    1  0.1093753E+005  0.1043930E+01  0.7957747E-01            NaN
         13   -1    0    0    0    0  0.00000000000E+00  0.00000000000E+00  0.74505805969E-08  0.10566000000E+00  0.10566000000E+00 0. -1.
     999900   -1    0    0    0    0 -0.00000000000E+00 -0.00000000000E+00 -0.74505805969E-08  0.93827000000E+00  0.93827000000E+00 0. -1.
     999902    2    1    2    0    0  0.11857737900E-01  0.15513801841E-01  0.14060064868E-01  0.10198682166E+01  0.10195843319E+01 0.  0.
     999903    2    3    3    0    0  0.23986405019E-01  0.12870933960E+00  0.24524178282E-02  0.13245902588E+00  0.19948369813E-01 0.  0.
         14    1    1    2    0    0 -0.11857737900E-01 -0.15513801841E-01 -0.14060064868E-01  0.24061783387E-01  0.00000000000E+00 0.  1.
     999901    1    3    3    0    0 -0.12128667119E-01 -0.11319553775E+00  0.11607647040E-01  0.88740919074E+00  0.88000000000E+00 0. -1.
        -11    1    4    4    0    0  0.17423785046E-01  0.43298168756E-01  0.32826027049E-02  0.46790557856E-01  0.51100000000E-03 0. -1.
         11    1    4    4    0    0  0.65626199723E-02  0.85411170839E-01 -0.83018487672E-03  0.85668468021E-01  0.51100000000E-03 0.  1.
</event>
<event>
 8    1  0.1093753E+005  0.1043930E+01  0.7957747E-01            NaN
         13   -1    0    0    0    0  0.00000000000E+00  0.00000000000E+00  0.74505805969E-08  0.10566000000E+00  0.10566000000E+00 0.  1.
     999900   -1    0    0    0    0 -0.00000000000E+00 -0.00000000000E+00 -0.74505805969E-08  0.93827000000E+00  0.93827000000E+00 0.  1.
     999902    2    1    2    0    0  0.64240236580E-02  0.23140773662E-01  0.31644376064E-02  0.10197065165E+01  0.10194187573E+01 0.  0.
     999903    2    3    3    0    0 -0.69439045166E-01 -0.67219935462E-02 -0.10752807325E+00  0.12903271428E+00  0.14838754203E-01 0.  0.
         14    1    1    2    0    0 -0.64240236580E-02 -0.23140773662E-01 -0.31644376064E-02  0.24223483461E-01  0.00000000000E+00 0. -1.
     999901    1    3    3    0    0  0.75863068824E-01  0.29862767208E-01  0.11069251085E+00  0.89067380226E+00  0.88000000000E+00 0. -1.
        -11    1    4    4    0    0 -0.27374181921E-01 -0.14516662805E-02 -0.55622597705E-01  0.62012802447E-01  0.51100000000E-03 0.  1.
         11    1    4    4    0    0 -0.42064863245E-01 -0.52703272657E-02 -0.51905475543E-01  0.67019911830E-01  0.51100000000E-03 0. -1.
</event>
<event>
 8    1  0.1093753E+005  0.1043930E+01  0.7957747E-01            NaN
         13   -1    0    0    0    0  0.00000000000E+00  0.00000000000E+00  0.74505805969E-08  0.10566000000E+00  0.10566000000E+00 0. -1.
     999900   -1    0    0    0    0 -0.00000000000E+00 -0.00000000000E+00 -0.74505805969E-08  0.93827000000E+00  0.93827000000E+00 0.  1.
     999902    2    1    2    0    0  0.23278615249E-01  0.33709268622E-03 -0.69694967364E-02  0.10196281185E+01  0.10193384711E+01 0.  0.
     999903    2    3    3    0    0  0.93053859359E-01 -0.72797896000E-01 -0.56366506301E-01  0.13246557657E+00  0.20282789247E-01 0.  0.
         14    1    1    2    0    0 -0.23278615249E-01 -0.33709268622E-03  0.69694967364E-02  0.24301881494E-01  0.00000000000E+00 0. -1.
     999901    1    3    3    0    0 -0.69775244110E-01  0.73134988686E-01  0.49397009564E-01  0.88716254194E+00  0.88000000000E+00 0. -1.
        -11    1    4    4    0    0  0.71066960534E-01 -0.58328639676E-01 -0.34351930327E-01  0.98148149877E-01  0.51100000000E-03 0.  1.
         11    1    4    4    0    0  0.21986898825E-01 -0.14469256324E-01 -0.22014575973E-01  0.34317426693E-01  0.51100000000E-03 0. -1.
</event>
<event>
 7    1  0.1093753E+005  0.1043930E+01  0.7957747E-01            NaN
         13   -1    0    0    0    0  0.00000000000E+00  0.00000000000E+00  0.74505805969E-08  0.10566000000E+00  0.10566000000E+00 0. -1.
     999900   -1    0    0    0    0 -0.00000000000E+00 -0.00000000000E+00 -0.74505805969E-08  0.93827000000E+00  0.93827000000E+00 0. -1.
     999902    2    1    2    0    0 -0.93534157270E-02  0.12926402018E-01  0.17743281150E-01  0.10200678484E+01  0.10197887100E+01 0.  0.
         14    1    1    2    0    0  0.93534157270E-02 -0.12926402018E-01 -0.17743281150E-01  0.23862151639E-01  0.00000000000E+00 0.  1.
     999901    1    3    3    0    0 -0.11423360897E+00 -0.55614006948E-01  0.48419726620E-02  0.88913760458E+00  0.88000000000E+00 0. -1.
        -11    1    3    3    0    0  0.32614968326E-01  0.39003444191E-01 -0.41671455080E-02  0.51015988085E-01  0.51100000000E-03 0.  1.
         11    1    3    3    0    0  0.72265224913E-01  0.29536964774E-01  0.17068453996E-01  0.79914255691E-01  0.51100000000E-03 0. -1.
</event>
<event>
 8    1  0.1093753E+005  0.1043930E+01  0.7957747E-01            NaN
         13   -1    0    0    0    0  0.00000000000E+00  0.00000000000E+00  0.74505805969E-08  0.10566000000E+00  0.10566000000E+00 0.  1.
     999900   -1    0    0    0    0 -0.00000000000E+00 -0.00000000000E+00 -0.74505805969E-08  0.93827000000E+00  0.93827000000E+00 0.  1.
     999902    2    1    2    0    0 -0.15059225169E-01  0.99179154682E-02 -0.16326420401E-01  0.10196051709E+01  0.10193149695E+01 0.  0.
     999903    2    3    3    0    0 -0.30234288444E-01  0.78880293709E-01 -0.10051371667E+00  0.13277170677E+00  0.19725768630E-01 0.  0.
         14    1    1    2    0    0  0.15059225169E-01 -0.99179154682E-02  0.16326420401E-01  0.24324829147E-01  0.00000000000E+00 0.  1.
     999901    1    3    3    0    0  0.15175063274E-01 -0.68962378241E-01  0.84187296266E-01  0.88683346408E+00  0.88000000000E+00 0. -1.
        -11    1    4    4    0    0 -0.21446511322E-01  0.30724407442E-01 -0.49295160544E-01  0.61921046782E-01  0.51100000000E-03 0.  1.
         11    1    4    4    0    0 -0.87877771221E-02  0.48155886267E-01 -0.51218556123E-01  0.70850659991E-01  0.51100000000E-03 0. -1.
</event>
<event>
 8    1  0.1093753E+005  0.1043930E+01  0.7957747E-01            NaN
         13   -1    0    0    0    0  0.00000000000E+00  0.00000000000E+00  0.74505805969E-08  0.10566000000E+00  0.10566000000E+00 0.  1.
     999900   -1    0    0    0    0 -0.00000000000E+00 -0.00000000000E+00 -0.74505805969E-08  0.93827000000E+00  0.93827000000E+00 0. -1.
     999902    2    1    2    0    0  0.13454872111E-01  0.17132940317E-01  0.80343642698E-02  0.10207109941E+01  0.10204468684E+01 0.  0.
     999903    2    3    3    0    0  0.35902988220E-01 -0.12578482796E-01 -0.12244653264E+00  0.13031111140E+00  0.23250582933E-01 0.  0.
         14    1    1    2    0    0 -0.13454872111E-01 -0.17132940317E-01 -0.80343642698E-02  0.23219005936E-01  0.00000000000E+00 0.  1.
     999901    1    3    3    0    0 -0.22448116109E-01  0.29711423113E-01  0.13048089691E+00  0.89039988266E+00  0.88000000000E+00 0.  1.
        -11    1    4    4    0    0  0.34259800839E-01 -0.47765389803E-02 -0.11160417281E+00  0.11684306478E+00  0.51100000000E-03 0.  1.
         11    1    4    4    0    0  0.16431873807E-02 -0.78019438157E-02 -0.10842359832E-01  0.13468046621E-01  0.51100000000E-03 0. -1.
</event>
<event>
 8    1  0.1093753E+005  0.1043930E+01  0.7957747E-01            NaN
         13   -1    0    0    0    0  0.00000000000E+00  0.00000000000E+00  0.74505805969E-08  0.10566000000E+00  0.10566000000E+00 0.  1.
     999900   -1    0    0    0    0 -0.00000000000E+00 -0.00000000000E+00 -0.74505805969E-08  0.93827000000E+00  0.93827000000E+00 0. -1.
     999902    2    1    2    0    0  0.13867621021E-01 -0.19068899496E-01 -0.14724642336E-02  0.10203058177E+01  0.10200322836E+01 0.  0.
     999903    2    3    3    0    0 -0.62249438935E-01  0.73444202900E-01 -0.82716807597E-01  0.12848009238E+00  0.19900258559E-01 0.  0.
         14    1    1    2    0    0 -0.13867621021E-01  0.19068899496E-01  0.14724642336E-02  0.23624182350E-01  0.00000000000E+00 0. -1.
     999901    1    3    3    0    0  0.76117059956E-01 -0.92513102396E-01  0.81244343364E-01  0.89182572527E+00  0.88000000000E+00 0.  1.
        -11    1    4    4    0    0 -0.54885772196E-01  0.54133623043E-01 -0.59424817826E-01  0.97336874965E-01  0.51100000000E-03 0.  1.
         11    1    4    4    0    0 -0.73636667396E-02  0.19310579857E-01 -0.23291989772E-01  0.31143217412E-01  0.51100000000E-03 0. -1.
</event>
<event>
 8    1  0.1093753E+005  0.1043930E+01  0.7957747E-01            NaN
         13   -1    0    0    0    0  0.00000000000E+00  0.00000000000E+00  0.74505805969E-08  0.10566000000E+00  0.10566000000E+00 0.  1.
     999900   -1    0    0    0    0 -0.00000000000E+00 -0.00000000000E+00 -0.74505805969E-08  0.93827000000E+00  0.93827000000E+00 0. -1.
     999902    2    1    2    0    0  0.15922931836E-01  0.23500788738E-02 -0.17660827788E-01  0.10200350744E+01  0.10197551597E+01 0.  0.
     999903    2    3    3    0    0  0.64613988123E-01  0.74012363881E-01 -0.87379185241E-01  0.13303622923E+00  0.20266198597E-01 0.  0.
         14    1    1    2    0    0 -0.15922931836E-01 -0.23500788738E-02  0.17660827788E-01  0.23894925552E-01  0.00000000000E+00 0.  1.
     999901    1    3    3    0    0 -0.48691056287E-01 -0.71662285008E-01  0.69718357453E-01  0.88699884522E+00  0.88000000000E+00 0.  1.
        -11    1    4    4    0    0 -0.87669739685E-03 -0.40187789571E-03 -0.41778597553E-03  0.11686617518E-02  0.51100000000E-03 0.  1.
         11    1    4    4    0    0  0.65490685520E-01  0.74414241777E-01 -0.86961399265E-01  0.13186756748E+00  0.51100000000E-03 0.  1.
</event>
<event>
 8    1  0.1093753E+005  0.1043930E+01  0.7957747E-01            NaN
         13   -1    0    0    0    0  0.00000000000E+00  0.00000000000E+00  0.74505805969E-08  0.10566000000E+00  0.10566000000E+00 0.  1.
     999900   -1    0    0    0    0 -0.00000000000E+00 -0.00000000000E+00 -0.74505805969E-08  0.93827000000E+00  0.93827000000E+00 0. -1.
     999902    2    1    2    0    0 -0.27375749262E-01 -0.10225022895E-01 -0.11248364714E-01  0.10126169285E+01  0.10121326669E+01 0.  0.
     999903    2    3    3    0    0  0.65102690134E-01 -0.10085598802E+00 -0.18918873606E-01  0.12310859780E+00  0.19685336977E-01 0.  0.
         14    1    1    2    0    0  0.27375749262E-01  0.10225022895E-01  0.11248364714E-01  0.31313071546E-01  0.00000000000E+00 0.  1.
     999901    1    3    3    0    0 -0.92478439396E-01  0.90630965126E-01  0.76705088912E-02  0.88950833065E+00  0.88000000000E+00 0. -1.
        -11    1    4    4    0    0  0.25314977132E-01 -0.23395242292E-01 -0.32472519119E-02  0.34626452245E-01  0.51100000000E-03 0. -1.
         11    1    4    4    0    0  0.39787713001E-01 -0.77460745729E-01 -0.15671621694E-01  0.88482145557E-01  0.51100000000E-03 0.  1.
</event>
<event>
 8    1  0.1093753E+005  0.1043930E+01  0.7957747E-01            NaN
         13   -1    0    0    0    0  0.00000000000E+00  0.00000000000E+00  0.74505805969E-08  0.10566000000E+00  0.10566000000E+00 0. -1.
     999900   -1    0    0    0    0 -0.00000000000E+00 -0.00000000000E+00 -0.74505805969E-08  0.93827000000E+00  0.93827000000E+00 0.  1.
     999902    2    1    2    0    0  0.46332615943E-02 -0.22988608296E-01  0.38583443783E-02  0.10201638466E+01  0.10198869761E+01 0.  0.
     999903    2    3    3    0    0  0.35254627091E-01  0.11043464146E+00  0.51460181905E-01  0.12830883233E+00  0.19398643445E-01 0.  0.
         14    1    1    2    0    0 -0.46332615943E-02  0.22988608296E-01 -0.38583443783E-02  0.23766153364E-01  0.00000000000E+00 0. -1.
     999901    1    3    3    0    0 -0.30621365497E-01 -0.13342324976E+00 -0.47601837527E-01  0.89185501430E+00  0.88000000000E+00 0. -1.
        -11    1    4    4    0    0  0.32714498884E-02  0.28490584523E-01  0.60503141251E-02  0.29313532930E-01  0.51100000000E-03 0. -1.
         11    1    4    4    0    0  0.31983177202E-01  0.81944056937E-01  0.45409867780E-01  0.98995299404E-01  0.51100000000E-03 0.  1.
</event>
<event>
 8    1  0.1093753E+005  0.1043930E+01  0.7957747E-01            NaN
         13   -1    0    0    0    0  0.00000000000E+00  0.00000000000E+00  0.74505805969E-08  0.10566000000E+00  0.10566000000E+00 0.  1.
     999900   -1    0    0    0    0 -0.00000000000E+00 -0.00000000000E+00 -0.74505805969E-08  0.93827000000E+00  0.93827000000E+00 0.  1.
     999902    2    1    2    0    0  0.15095266203E-01 -0.14990573345E-01  0.83639273322E-02  0.10210708742E+01  0.10208149639E+01 0.  0.
     999903    2    3    3    0    0  0.10801454311E-01  0.44693003149E-01  0.12168477412E+00  0.13178904013E+00  0.21143105286E-01 0.  0.
         14    1    1    2    0    0 -0.15095266203E-01  0.14990573345E-01 -0.83639273322E-02  0.22859125779E-01  0.00000000000E+00 0. -1.
     999901    1    3    3    0    0  0.42938118914E-02 -0.59683576494E-01 -0.11332084679E+00  0.88928183409E+00  0.88000000000E+00 0.  1.
        -11    1    4    4    0    0 -0.39239935541E-02  0.24798552847E-01  0.72483954700E-01  0.76710825563E-01  0.51100000000E-03 0. -1.
         11    1    4    4    0    0  0.14725447866E-01  0.19894450302E-01  0.49200819419E-01  0.55078214569E-01  0.51100000000E-03 0.  1.
</event>
<event>
 8    1  0.1093753E+005  0.1043930E+01  0.7957747E-01            NaN
         13   -1    0    0    0    0  0.00000000000E+00  0.00000000000E+00  0.74505805969E-08  0.10566000000E+00  0.10566000000E+00 0.  1.
     999900   -1    0    0    0    0 -0.00000000000E+00 -0.00000000000E+00 -0.74505805969E-08  0.93827000000E+00  0.93827000000E+00 0.  1.
     999902    2    1    2    0    0  0.61279280638E-02 -0.81301239690E-02 -0.19254171980E-01  0.10221498816E+01  0.10219178083E+01 0.  0.
     999903    2    3    3    0    0  0.10368885946E+00  0.27931260388E-01  0.72836411928E-01  0.13125188834E+00  0.19758046661E-01 0.  0.
         14    1    1    2    0    0 -0.61279280638E-02  0.81301239690E-02  0.19254171980E-01  0.21780118382E-01  0.00000000000E+00 0.  1.
     999901    1    3    3    0    0 -0.97560931397E-01 -0.36061384357E-01 -0.92090583908E-01  0.89089799327E+00  0.88000000000E+00 0.  1.
        -11    1    4    4    0    0  0.59551680725E-01  0.62486602836E-02  0.36814720133E-01  0.70292483040E-01  0.51100000000E-03 0.  1.
         11    1    4    4    0    0  0.44137178736E-01  0.21682600105E-01  0.36021691795E-01  0.60959405302E-01  0.51100000000E-03 0. -1.
</event>
<event>
 8    1  0.1093753E+005  0.1043930E+01  0.7957747E-01            NaN
         13   -1    0    0    0    0  0.00000000000E+00  0.00000000000E+00  0.74505805969E-08  0.10566000000E+00  0.10566000000E+00 0. -1.
     999900   -1    0    0    0    0 -0.00000000000E+00 -0.00000000000E+00 -0.74505805969E-08  0.93827000000E+00  0.93827000000E+00 0.  1.
     999902    2    1    2    0    0 -0.12346641045E-01 -0.10295774848E-01  0.19658636675E-01  0.10185350296E+01  0.10182183960E+01 0.  0.
     999903    2    3    3    0    0 -0.51178218187E-01 -0.54261025324E-01  0.10754279721E+00  0.13221428615E+00  0.18753542196E-01 0.  0.
         14    1    1    2    0    0  0.12346641045E-01  0.10295774848E-01 -0.19658636675E-01  0.25394970382E-01  0.00000000000E+00 0.  1.
     999901    1    3    3    0    0  0.38831577143E-01  0.43965250476E-01 -0.87884160531E-01  0.88632074347E+00  0.88000000000E+00 0.  1.
        -11    1    4    4    0    0 -0.21801812585E-01 -0.13550282497E-01  0.47069193443E-01  0.53616222173E-01  0.51100000000E-03 0. -1.
         11    1    4    4    0    0 -0.29376405603E-01 -0.40710742827E-01  0.60473603762E-01  0.78598063975E-01  0.51100000000E-03 0.  1.
</event>
<event>
 8    1  0.1093753E+005  0.1043930E+01  0.7957747E-01            NaN
         13   -1    0    0    0    0  0.00000000000E+00  0.00000000000E+00  0.74505805969E-08  0.10566000000E+00  0.10566000000E+00 0. -1.
     999900   -1    0    0    0    0 -0.00000000000E+00 -0.00000000000E+00 -0.74505805969E-08  0.93827000000E+00  0.93827000000E+00 0. -1.
     999902    2    1    2    0    0  0.16335996616E-01 -0.16873170164E-02 -0.12496578616E-01  0.10232932294E+01  0.10230851172E+01 0.  0.
     999903    2    3    3    0    0  0.71125098531E-01 -0.87959839417E-01 -0.71584802402E-01  0.13541023484E+00  0.20392027226E-01 0.  0.
         14    1    1    2    0    0 -0.16335996616E-01  0.16873170164E-02  0.12496578616E-01  0.20636770611E-01  0.00000000000E+00 0. -1.
     999901    1    3    3    0    0 -0.54789101914E-01  0.86272522401E-01  0.59088223787E-01  0.88788299454E+00  0.88000000000E+00 0.  1.
        -11    1    4    4    0    0  0.39470298271E-01 -0.56790780359E-01 -0.33291785957E-01  0.76757418616E-01  0.51100000000E-03 0.  1.
         11    1    4    4    0    0  0.31654800260E-01 -0.31169059058E-01 -0.38293016446E-01  0.58652816229E-01  0.51100000000E-03 0. -1.
</event>
<event>
 8    1  0.1093753E+005  0.1043930E+01  0.7957747E-01            NaN
         13   -1    0    0    0    0  0.00000000000E+00  0.00000000000E+00  0.74505805969E-08  0.10566000000E+00  0.10566000000E+00 0.  1.
     999900   -1    0    0    0    0 -0.00000000000E+00 -0.00000000000E+00 -0.74505805969E-08  0.93827000000E+00  0.93827000000E+00 0. -1.
     999902    2    1    2    0    0 -0.86830787152E-02  0.24046708334E-01  0.97412425317E-02  0.10165706900E+01  0.10162024581E+01 0.  0.
     999903    2    3    3    0    0 -0.73818738341E-01  0.10599984430E-01 -0.10148180702E+00  0.12707980455E+00  0.17004522002E-01 0.  0.
         14    1    1    2    0    0  0.86830787152E-02 -0.24046708334E-01 -0.97412425317E-02  0.27359310001E-01  0.00000000000E+00 0. -1.
     999901    1    3    3    0    0  0.65135659626E-01  0.13446723903E-01  0.11122304955E+00  0.88949088545E+00  0.88000000000E+00 0.  1.
        -11    1    4    4    0    0 -0.32499436607E-01  0.11253162570E-01 -0.37255861094E-01  0.50706087943E-01  0.51100000000E-03 0. -1.
         11    1    4    4    0    0 -0.41319301734E-01 -0.65317813983E-03 -0.64225945928E-01  0.76373716610E-01  0.51100000000E-03 0.  1.
</event>
<event>
 8    1  0.1093753E+005  0.1043930E+01  0.7957747E-01            NaN
         13   -1    0    0    0    0  0.00000000000E+00  0.00000000000E+00  0.74505805969E-08  0.10566000000E+00  0.10566000000E+00 0.  1.
     999900   -1    0    0    0    0 -0.00000000000E+00 -0.00000000000E+00 -0.74505805969E-08  0.93827000000E+00  0.93827000000E+00 0.  1.
     999902    2    1    2    0    0  0.12161547466E-01 -0.85919047644E-02  0.18797937401E-01  0.10199490385E+01  0.10196670803E+01 0.  0.
     999903    2    3    3    0    0  0.81733434761E-01  0.44243719115E-02  0.10320276869E+00  0.13308160392E+00  0.18972938917E-01 0.  0.
         14    1    1    2    0    0 -0.12161547466E-01  0.85919047644E-02 -0.18797937401E-01  0.23980961506E-01  0.00000000000E+00 0. -1.
     999901    1    3    3    0    0 -0.69571887295E-01 -0.13016276676E-01 -0.84404831294E-01  0.88686743457E+00  0.88000000000E+00 0.  1.
        -11    1    4    4    0    0  0.48463865288E-01  0.80714450968E-02  0.73010404021E-01  0.88003833330E-01  0.51100000000E-03 0.  1.
         11    1    4    4    0    0  0.33269569474E-01 -0.36470731853E-02  0.30192364674E-01  0.45077770590E-01  0.51100000000E-03 0. -1.
</event>
<event>
 8    1  0.1093753E+005  0.1043930E+01  0.7957747E-01            NaN
         13   -1    0    0    0    0  0.00000000000E+00  0.00000000000E+00  0.74505805969E-08  0.10566000000E+00  0.10566000000E+00 0.  1.
     999900   -1    0    0    0    0 -0.00000000000E+00 -0.00000000000E+00 -0.74505805969E-08  0.93827000000E+00  0.93827000000E+00 0.  1.
     999902    2    1    2    0    0  0.16610481216E-01 -0.17147707579E-01  0.10865849484E-02  0.10200316187E+01  0.10197516220E+01 0.  0.
     999903    2    3    3    0    0  0.18516833497E-01 -0.77854461658E-01 -0.10279661911E+00  0.13184207573E+00  0.20273078463E-01 0.  0.
         14    1    1    2    0    0 -0.16610481216E-01  0.17147707579E-01 -0.10865849484E-02  0.23898381290E-01  0.00000000000E+00 0. -1.
     999901    1    3    3    0    0 -0.19063522813E-02  0.60706754079E-01  0.10388320406E+00  0.88818954298E+00  0.88000000000E+00 0. -1.
        -11    1    4    4    0    0  0.47040139248E-02 -0.12346057575E-01 -0.30846584687E-01  0.33560777591E-01  0.51100000000E-03 0.  1.
         11    1    4    4    0    0  0.13812819572E-01 -0.65508404083E-01 -0.71950034421E-01  0.98281298141E-01  0.51100000000E-03 0. -1.
</event>
<event>
 8    1  0.1093753E+005  0.1043930E+01  0.7957747E-01            NaN
         13   -1    0    0    0    0  0.00000000000E+00  0.00000000000E+00  0.74505805969E-08  0.10566000000E+00  0.10566000000E+00 0. -1.
     999900   -1    0    0    0    0 -0.00000000000E+00 -0.00000000000E+00 -0.74505805969E-08  0.93827000000E+00  0.93827000000E+00 0.  1.
     999902    2    1    2    0    0 -0.23308594572E-01  0.21669942343E-02 -0.30153832502E-02  0.10203274793E+01  0.10200544525E+01 0.  0.
     999903    2    3    3    0    0  0.24251573904E-02  0.37631851777E-01  0.12314650059E+00  0.13025062702E+00  0.19445502715E-01 0.  0.
         14    1    1    2    0    0  0.23308594572E-01 -0.21669942343E-02  0.30153832502E-02  0.23602520651E-01  0.00000000000E+00 0. -1.
     999901    1    3    3    0    0 -0.25733751963E-01 -0.35464857543E-01 -0.12616188384E+00  0.89007685233E+00  0.88000000000E+00 0.  1.
        -11    1    4    4    0    0 -0.13034318026E-02  0.35770585954E-01  0.11930469473E+00  0.12455964459E+00  0.51100000000E-03 0.  1.
         11    1    4    4    0    0  0.37285891930E-02  0.18612658229E-02  0.38418058621E-02  0.56909824385E-02  0.51100000000E-03 0. -1.
</event>
<event>
 8    1  0.1093753E+005  0.1043930E+01  0.7957747E-01            NaN
         13   -1    0    0    0    0  0.00000000000E+00  0.00000000000E+00  0.74505805969E-08  0.10566000000E+00  0.10566000000E+00 0.  1.
     999900   -1    0    0    0    0 -0.00000000000E+00 -0.00000000000E+00 -0.74505805969E-08  0.93827000000E+00  0.93827000000E+00 0.  1.
     999902    2    1    2    0    0 -0.18877411387E-02  0.10561462360E-01 -0.20975704596E-01  0.10203696894E+01  0.10200976496E+01 0.  0.
     999903    2    3    3    0    0  0.27158524956E-01 -0.11515051885E+00 -0.51351829190E-01  0.13044278409E+00  0.19521324015E-01 0.  0.
         14    1    1    2    0    0  0.18877411387E-02 -0.10561462360E-01  0.20975704596E-01  0.23560310632E-01  0.00000000000E+00 0.  1.
     999901    1    3    3    0    0 -0.29046266094E-01  0.12571198121E+00  0.30376124594E-01  0.88992690528E+00  0.88000000000E+00 0. -1.
        -11    1    4    4    0    0  0.97685163206E-02 -0.53707658407E-01 -0.33832063534E-01  0.64224653574E-01  0.51100000000E-03 0. -1.
         11    1    4    4    0    0  0.17390008635E-01 -0.61442860440E-01 -0.17519765656E-01  0.66218130516E-01  0.51100000000E-03 0.  1.
</event>
<event>
 8    1  0.1093753E+005  0.1043930E+01  0.7957747E-01            NaN
         13   -1    0    0    0    0  0.00000000000E+00  0.00000000000E+00  0.74505805969E-08  0.10566000000E+00  0.10566000000E+00 0. -1.
     999900   -1    0    0    0    0 -0.00000000000E+00 -0.00000000000E+00 -0.74505805969E-08  0.93827000000E+00  0.93827000000E+00 0.  1.
     999902    2    1    2    0    0  0.12589866094E-01  0.18532384462E-01  0.84653544436E-02  0.10199797134E+01  0.10196984846E+01 0.  0.
     999903    2    3    3    0    0 -0.46635144259E-01 -0.11601389840E+00 -0.15348626349E-01  0.12746785927E+00  0.19452853651E-01 0.  0.
         14    1    1    2    0    0 -0.12589866094E-01 -0.18532384462E-01 -0.84653544436E-02  0.23950286595E-01  0.00000000000E+00 0.  1.
     999901    1    3    3    0    0  0.59225010353E-01  0.13454628286E+00  0.23813980792E-01  0.89251185413E+00  0.88000000000E+00 0. -1.
        -11    1    4    4    0    0 -0.59768402492E-02 -0.38575190641E-01 -0.33207551308E-02  0.39179796937E-01  0.51100000000E-03 0. -1.
         11    1    4    4    0    0 -0.40658304009E-01 -0.77438707759E-01 -0.12027871218E-01  0.88288062337E-01  0.51100000000E-03 0.  1.
</event>
<event>
 8    1  0.1093753E+005  0.1043930E+01  0.7957747E-01            NaN
         13   -1    0    0    0    0  0.00000000000E+00  0.00000000000E+00  0.74505805969E-08  0.10566000000E+00  0.10566000000E+00 0.  1.
     999900   -1    0    0    0    0 -0.00000000000E+00 -0.00000000000E+00 -0.74505805969E-08  0.93827000000E+00  0.93827000000E+00 0. -1.
     999902    2    1    2    0    0  0.16236842513E-02 -0.73079706463E-02  0.22257464587E-01  0.10204472933E+01  0.10201770635E+01 0.  0.
     999903    2    3    3    0    0  0.21651288506E-01  0.11514990355E+00 -0.49388977375E-01  0.12885868380E+00  0.20904801423E-01 0.  0.
         14    1    1    2    0    0 -0.16236842513E-02  0.73079706463E-02 -0.22257464587E-01  0.23482706730E-01  0.00000000000E+00 0. -1.
     999901    1    3    3    0    0 -0.20027604255E-01 -0.12245787420E+00  0.71646441963E-01  0.89158860947E+00  0.88000000000E+00 0.  1.
        -11    1    4    4    0    0  0.77389031504E-02  0.85745569154E-01 -0.31124200343E-01  0.91548731392E-01  0.51100000000E-03 0. -1.
         11    1    4    4    0    0  0.13912385356E-01  0.29404334401E-01 -0.18264777033E-01  0.37309952411E-01  0.51100000000E-03 0.  1.
</event>
<event>
 8    1  0.1093753E+005  0.1043930E+01  0.7957747E-01            NaN
         13   -1    0    0    0    0  0.00000000000E+00  0.00000000000E+00  0.74505805969E-08  0.10566000000E+00  0.10566000000E+00 0. -1.
     999900   -1    0    0    0    0 -0.00000000000E+00 -0.00000000000E+00 -0.74505805969E-08  0.93827000000E+00  0.93827000000E+00 0. -1.
     999902    2    1    2    0    0  0.64743795328E-02  0.31374185982E-02 -0.22295705456E-01  0.10205022501E+01  0.10202332983E+01 0.  0.
     999903    2    3    3    0    0 -0.10883884225E+00  0.53932235009E-01 -0.45640942193E-01  0.13122037541E+00  0.19522083956E-01 0.  0.
         14    1    1    2    0    0 -0.64743795328E-02 -0.31374185982E-02  0.22295705456E-01  0.23427749947E-01  0.00000000000E+00 0. -1.
     999901    1    3    3    0    0  0.11531322179E+00 -0.50794816411E-01  0.23345236738E-01  0.88928187464E+00  0.88000000000E+00 0. -1.
        -11    1    4    4    0    0 -0.75768386626E-01  0.46688924041E-01 -0.36109050969E-01  0.96045971925E-01  0.51100000000E-03 0. -1.
         11    1    4    4    0    0 -0.33070455627E-01  0.72433109683E-02 -0.95318912247E-02  0.35174403484E-01  0.51100000000E-03 0.  1.
</event>
<event>
 8    1  0.1093753E+005  0.1043930E+01  0.7957747E-01            NaN
         13   -1    0    0    0    0  0.00000000000E+00  0.00000000000E+00  0.74505805969E-08  0.10566000000E+00  0.10566000000E+00 0.  1.
     999900   -1    0    0    0    0 -0.00000000000E+00 -0.00000000000E+00 -0.74505805969E-08  0.93827000000E+00  0.93827000000E+00 0.  1.
     999902    2    1    2    0    0 -0.98245333731E-02 -0.22027396513E-01  0.66496215404E-03  0.10198018043E+01  0.10195163315E+01 0.  0.
     999903    2    3    3    0    0 -0.36247720083E-01 -0.12623231650E+00  0.11398417552E-01  0.13319475650E+00  0.19037444567E-01 0.  0.
         14    1    1    2    0    0  0.98245333731E-02  0.22027396513E-01 -0.66496215404E-03  0.24128195701E-01  0.00000000000E+00 0. -1.
     999901    1    3    3    0    0  0.26423186710E-01  0.10420491999E+00 -0.10733455397E-01  0.88660704780E+00  0.88000000000E+00 0. -1.
        -11    1    4    4    0    0 -0.31774853538E-01 -0.92846951752E-01  0.15155798515E-01  0.99298323836E-01  0.51100000000E-03 0.  1.
         11    1    4    4    0    0 -0.44728665452E-02 -0.33385364748E-01 -0.37573809636E-02  0.33896432662E-01  0.51100000000E-03 0. -1.
</event>
<event>
 8    1  0.1093753E+005  0.1043930E+01  0.7957747E-01            NaN
         13   -1    0    0    0    0  0.00000000000E+00  0.00000000000E+00  0.74505805969E-08  0.10566000000E+00  0.10566000000E+00 0.  1.
     999900   -1    0    0    0    0 -0.00000000000E+00 -0.00000000000E+00 -0.74505805969E-08  0.93827000000E+00  0.93827000000E+00 0. -1.
     999902    2    1    2    0    0 -0.15870175247E-01  0.14311488898E-01 -0.10787698321E-01  0.10199914200E+01  0.10197104693E+01 0.  0.
     999903    2    3    3    0    0  0.52891543933E-01 -0.84404988491E-01  0.77006965795E-01  0.12747754338E+00  0.19968319489E-01 0.  0.
         14    1    1    2    0    0  0.15870175247E-01 -0.14311488898E-01  0.10787698321E-01  0.23938579990E-01  0.00000000000E+00 0.  1.
     999901    1    3    3    0    0 -0.68761719180E-01  0.98716477390E-01 -0.87794664116E-01  0.89251387663E+00  0.88000000000E+00 0.  1.
        -11    1    4    4    0    0  0.17081393478E-01 -0.25326766290E-01  0.35681567875E-01  0.46975041255E-01  0.51100000000E-03 0.  1.
         11    1    4    4    0    0  0.35810150454E-01 -0.59078222201E-01  0.41325397920E-01  0.80502502124E-01  0.51100000000E-03 0. -1.
</event>
<event>
 8    1  0.1093753E+005  0.1043930E+01  0.7957747E-01            NaN
         13   -1    0    0    0    0  0.00000000000E+00  0.00000000000E+00  0.74505805969E-08  0.10566000000E+00  0.10566000000E+00 0.  1.
     999900   -1    0    0    0    0 -0.00000000000E+00 -0.00000000000E+00 -0.74505805969E-08  0.93827000000E+00  0.93827000000E+00 0.  1.
     999902    2    1    2    0    0 -0.19296765048E-01 -0.13982728053E-01  0.18699531350E-03  0.10200989951E+01  0.10198205936E+01 0.  0.
     999903    2    3    3    0    0  0.10363469359E+00  0.37827908951E-01  0.61242901949E-01  0.12795309376E+00  0.21217934676E-01 0.  0.
         14    1    1    2    0    0  0.19296765048E-01  0.13982728053E-01 -0.18699531350E-03  0.23831004855E-01  0.00000000000E+00 0.  1.
     999901    1    3    3    0    0 -0.12293145864E+00 -0.51810637004E-01 -0.61055906636E-01  0.89214590139E+00  0.88000000000E+00 0.  1.
        -11    1    4    4    0    0  0.24713767571E-01  0.11609880591E-01  0.55615326724E-02  0.27870260163E-01  0.51100000000E-03 0. -1.
         11    1    4    4    0    0  0.78920926018E-01  0.26218028360E-01  0.55681369277E-01  0.10008283359E+00  0.51100000000E-03 0.  1.
</event>
<event>
 8    1  0.1093753E+005  0.1043930E+01  0.7957747E-01            NaN
         13   -1    0    0    0    0  0.00000000000E+00  0.00000000000E+00  0.74505805969E-08  0.10566000000E+00  0.10566000000E+00 0.  1.
     999900   -1    0    0    0    0 -0.00000000000E+00 -0.00000000000E+00 -0.74505805969E-08  0.93827000000E+00  0.93827000000E+00 0. -1.
     999902    2    1    2    0    0 -0.14370342539E-02  0.24907220369E-02  0.23119034238E-01  0.10206328219E+01  0.10203668941E+01 0.  0.
     999903    2    3    3    0    0  0.10095490747E+00  0.74866148455E-01  0.33961048588E-01  0.13167845785E+00  0.19723841206E-01 0.  0.
         14    1    1    2    0    0  0.14370342539E-02 -0.24907220369E-02 -0.23119034238E-01  0.23297178109E-01  0.00000000000E+00 0. -1.
     999901    1    3    3    0    0 -0.10239194173E+00 -0.72375426418E-01 -0.10842014350E-01  0.88895436405E+00  0.88000000000E+00 0. -1.
        -11    1    4    4    0    0  0.26628499751E-01  0.31043584646E-01  0.94643473860E-02  0.41983522233E-01  0.51100000000E-03 0. -1.
         11    1    4    4    0    0  0.74326407723E-01  0.43822563809E-01  0.24496701202E-01  0.89694935613E-01  0.51100000000E-03 0.  1.
</event>
<event>
 8    1  0.1093753E+005  0.1043930E+01  0.7957747E-01            NaN
         13   -1    0    0    0    0  0.00000000000E+00  0.00000000000E+00  0.74505805969E-08  0.10566000000E+00  0.10566000000E+00 0.  1.
     999900   -1    0    0    0    0 -0.00000000000E+00 -0.00000000000E+00 -0.74505805969E-08  0.93827000000E+00  0.93827000000E+00 0. -1.
     999902    2    1    2    0    0 -0.65839896237E-02  0.19280772298E-01  0.11523726775E-01  0.10205228776E+01  0.10202544047E+01 0.  0.
     999903    2    3    3    0    0  0.53994699623E-01  0.94382107902E-01  0.73914912703E-01  0.13305307628E+00  0.20403355287E-01 0.  0.
         14    1    1    2    0    0  0.65839896237E-02 -0.19280772298E-01 -0.11523726775E-01  0.23407122390E-01  0.00000000000E+00 0. -1.
     999901    1    3    3    0    0 -0.60578689247E-01 -0.75101335604E-01 -0.62391185928E-01  0.88746980134E+00  0.88000000000E+00 0. -1.
        -11    1    4    4    0    0  0.10535556970E-01  0.11957458768E-01  0.19342276074E-01  0.25067180646E-01  0.51100000000E-03 0.  1.
         11    1    4    4    0    0  0.43459142653E-01  0.82424649134E-01  0.54572636629E-01  0.10798589563E+00  0.51100000000E-03 0. -1.
</event>
<event>
 8    1  0.1093753E+005  0.1043930E+01  0.7957747E-01            NaN
         13   -1    0    0    0    0  0.00000000000E+00  0.00000000000E+00  0.74505805969E-08  0.10566000000E+00  0.10566000000E+00 0. -1.
     999900   -1    0    0    0    0 -0.00000000000E+00 -0.00000000000E+00 -0.74505805969E-08  0.93827000000E+00  0.93827000000E+00 0.  1.
     999902    2    1    2    0    0  0.17476839089E-01 -0.10728797585E-01 -0.10852957314E-01  0.10207279810E+01  0.10204642461E+01 0.  0.
     999903    2    3    3    0    0  0.79055176986E-01  0.98783731820E-01 -0.29566646675E-01  0.13160757975E+00  0.20938523604E-01 0.  0.
         14    1    1    2    0    0 -0.17476839089E-01  0.10728797585E-01  0.10852957314E-01  0.23202018977E-01  0.00000000000E+00 0. -1.
     999901    1    3    3    0    0 -0.61578337896E-01 -0.10951252941E+00  0.18713689362E-01  0.88912040128E+00  0.88000000000E+00 0.  1.
        -11    1    4    4    0    0  0.46712973183E-02  0.17047177802E-01 -0.29093281288E-02  0.17920731034E-01  0.51100000000E-03 0. -1.
         11    1    4    4    0    0  0.74383879667E-01  0.81736554019E-01 -0.26657318547E-01  0.11368684871E+00  0.51100000000E-03 0.  1.
</event>
<event>
 8    1  0.1093753E+005  0.1043930E+01  0.7957747E-01            NaN
         13   -1    0    0    0    0  0.00000000000E+00  0.00000000000E+00  0.74505805969E-08  0.10566000000E+00  0.10566000000E+00 0.  1.
     999900   -1    0    0    0    0 -0.00000000000E+00 -0.00000000000E+00 -0.74505805969E-08  0.93827000000E+00  0.93827000000E+00 0. -1.
     999902    2    1    2    0    0 -0.16159852118E-01 -0.18674825106E-01 -0.77900817901E-02  0.10180345315E+01  0.10177051302E+01 0.  0.
     999903    2    3    3    0    0  0.41626741314E-01  0.10702291036E+00 -0.48709017019E-01  0.12628705026E+00  0.19727184018E-01 0.  0.
         14    1    1    2    0    0  0.16159852118E-01  0.18674825106E-01  0.77900817901E-02  0.25895468474E-01  0.00000000000E+00 0.  1.
     999901    1    3    3    0    0 -0.57786593431E-01 -0.12569773547E+00  0.40918935229E-01  0.89174748127E+00  0.88000000000E+00 0.  1.
        -11    1    4    4    0    0  0.28512025014E-01  0.54052016171E-01 -0.33221969993E-01  0.69559445324E-01  0.51100000000E-03 0.  1.
         11    1    4    4    0    0  0.13114716300E-01  0.52970894193E-01 -0.15487047026E-01  0.56727604937E-01  0.51100000000E-03 0. -1.
</event>
<event>
 8    1  0.1093753E+005  0.1043930E+01  0.7957747E-01            NaN
         13   -1    0    0    0    0  0.00000000000E+00  0.00000000000E+00  0.74505805969E-08  0.10566000000E+00  0.10566000000E+00 0. -1.
     999900   -1    0    0    0    0 -0.00000000000E+00 -0.00000000000E+00 -0.74505805969E-08  0.93827000000E+00  0.93827000000E+00 0. -1.
     999902    2    1    2    0    0  0.95183568333E-02 -0.16059598746E-01  0.15376169911E-01  0.10197445409E+01  0.10194576952E+01 0.  0.
     999903    2    3    3    0    0  0.34162786575E-01 -0.10995007369E+00  0.63647396005E-01  0.13309191422E+00  0.20158172584E-01 0.  0.
         14    1    1    2    0    0 -0.95183568333E-02  0.16059598746E-01 -0.15376169911E-01  0.24185459057E-01  0.00000000000E+00 0.  1.
     999901    1    3    3    0    0 -0.24644429742E-01  0.93890474944E-01 -0.48271226095E-01  0.88665262672E+00  0.88000000000E+00 0.  1.
        -11    1    4    4    0    0  0.80178628530E-02 -0.19316644316E-01  0.34847933923E-02  0.21209049444E-01  0.51100000000E-03 0.  1.
         11    1    4    4    0    0  0.26144923722E-01 -0.90633429374E-01  0.60162602613E-01  0.11188286478E+00  0.51100000000E-03 0. -1.
</event>
<event>
 8    1  0.1093753E+005  0.1043930E+01  0.7957747E-01            NaN
         13   -1    0    0    0    0  0.00000000000E+00  0.00000000000E+00  0.74505805969E-08  0.10566000000E+00  0.10566000000E+00 0. -1.
     999900   -1    0    0    0    0 -0.00000000000E+00 -0.00000000000E+00 -0.74505805969E-08  0.93827000000E+00  0.93827000000E+00 0. -1.
     999902    2    1    2    0    0  0.82739401184E-02 -0.81563578318E-02 -0.21600245317E-01  0.10194033847E+01  0.10191082896E+01 0.  0.
     999903    2    3    3    0    0 -0.80339868927E-01 -0.66814342079E-01  0.71324195510E-01  0.12815251211E+00  0.20427301534E-01 0.  0.
         14    1    1    2    0    0 -0.82739401184E-02  0.81563578318E-02  0.21600245317E-01  0.24526615256E-01  0.00000000000E+00 0. -1.
     999901    1    3    3    0    0  0.88613809046E-01  0.58657984248E-01 -0.92924440827E-01  0.89125087263E+00  0.88000000000E+00 0. -1.
        -11    1    4    4    0    0 -0.28537848412E-01 -0.36639222292E-01  0.28777497578E-01  0.54637412915E-01  0.51100000000E-03 0. -1.
         11    1    4    4    0    0 -0.51802020515E-01 -0.30175119787E-01  0.42546697932E-01  0.73515099195E-01  0.51100000000E-03 0.  1.
</event>
<event>
 8    1  0.1093753E+005  0.1043930E+01  0.7957747E-01            NaN
         13   -1    0    0    0    0  0.00000000000E+00  0.00000000000E+00  0.74505805969E-08  0.10566000000E+00  0.10566000000E+00 0. -1.
     999900   -1    0    0    0    0 -0.00000000000E+00 -0.00000000000E+00 -0.74505805969E-08  0.93827000000E+00  0.93827000000E+00 0. -1.
     999902    2    1    2    0    0  0.10573957447E-01 -0.13743761171E-01 -0.16246760091E-01  0.10201674925E+01  0.10198907079E+01 0.  0.
     999903    2    3    3    0    0 -0.78393719412E-01  0.32343942326E-01  0.93305836346E-01  0.12773200730E+00  0.20439685506E-01 0.  0.
         14    1    1    2    0    0 -0.10573957447E-01  0.13743761171E-01  0.16246760091E-01  0.23762507457E-01  0.00000000000E+00 0. -1.
     999901    1    3    3    0    0  0.88967676859E-01 -0.46087703497E-01 -0.10955259644E+00  0.89243548525E+00  0.88000000000E+00 0. -1.
        -11    1    4    4    0    0 -0.54754187171E-01  0.12203154365E-01  0.57544658938E-01  0.80365333836E-01  0.51100000000E-03 0. -1.
         11    1    4    4    0    0 -0.23639532241E-01  0.20140787960E-01  0.35761177408E-01  0.47366673461E-01  0.51100000000E-03 0.  1.
</event>
<event>
 8    1  0.1093753E+005  0.1043930E+01  0.7957747E-01            NaN
         13   -1    0    0    0    0  0.00000000000E+00  0.00000000000E+00  0.74505805969E-08  0.10566000000E+00  0.10566000000E+00 0. -1.
     999900   -1    0    0    0    0 -0.00000000000E+00 -0.00000000000E+00 -0.74505805969E-08  0.93827000000E+00  0.93827000000E+00 0.  1.
     999902    2    1    2    0    0 -0.98636035433E-02 -0.15102099700E-01 -0.11323101241E-01  0.10226326595E+01  0.10224108663E+01 0.  0.
     999903    2    3    3    0    0 -0.35958483020E-01 -0.96775524030E-01 -0.85451245593E-01  0.13536354996E+00  0.19048903705E-01 0.  0.
         14    1    1    2    0    0  0.98636035433E-02  0.15102099700E-01  0.11323101241E-01  0.21297340489E-01  0.00000000000E+00 0. -1.
     999901    1    3    3    0    0  0.26094879476E-01  0.81673424330E-01  0.74128144352E-01  0.88726910955E+00  0.88000000000E+00 0.  1.
        -11    1    4    4    0    0 -0.31416919405E-01 -0.74111407671E-01 -0.74884269863E-01  0.10994288775E+00  0.51100000000E-03 0. -1.
         11    1    4    4    0    0 -0.45415636146E-02 -0.22664116359E-01 -0.10566975729E-01  0.25420662216E-01  0.51100000000E-03 0.  1.
</event>
<event>
 8    1  0.1093753E+005  0.1043930E+01  0.7957747E-01            NaN
         13   -1    0    0    0    0  0.00000000000E+00  0.00000000000E+00  0.74505805969E-08  0.10566000000E+00  0.10566000000E+00 0. -1.
     999900   -1    0    0    0    0 -0.00000000000E+00 -0.00000000000E+00 -0.74505805969E-08  0.93827000000E+00  0.93827000000E+00 0.  1.
     999902    2    1    2    0    0 -0.88445380640E-02 -0.20691507742E-01  0.26214806565E-02  0.10212752763E+01  0.10210239730E+01 0.  0.
     999903    2    3    3    0    0  0.79064927966E-01 -0.31792931377E-01  0.98003838739E-01  0.13169722458E+00  0.21848414921E-01 0.  0.
         14    1    1    2    0    0  0.88445380640E-02  0.20691507742E-01 -0.26214806565E-02  0.22654723725E-01  0.00000000000E+00 0.  1.
     999901    1    3    3    0    0 -0.87909466030E-01  0.11101423635E-01 -0.95382358083E-01  0.88957805170E+00  0.88000000000E+00 0.  1.
        -11    1    4    4    0    0  0.27902257947E-01 -0.13053282529E-01  0.51735908492E-01  0.60214529241E-01  0.51100000000E-03 0.  1.
         11    1    4    4    0    0  0.51162670019E-01 -0.18739648849E-01  0.46267930248E-01  0.71482695338E-01  0.51100000000E-03 0. -1.
</event>
<event>
 8    1  0.1093753E+005  0.1043930E+01  0.7957747E-01            NaN
         13   -1    0    0    0    0  0.00000000000E+00  0.00000000000E+00  0.74505805969E-08  0.10566000000E+00  0.10566000000E+00 0. -1.
     999900   -1    0    0    0    0 -0.00000000000E+00 -0.00000000000E+00 -0.74505805969E-08  0.93827000000E+00  0.93827000000E+00 0. -1.
     999902    2    1    2    0    0 -0.36398110974E-02 -0.22816453952E-01 -0.26490745422E-02  0.10206736806E+01  0.10204086955E+01 0.  0.
     999903    2    3    3    0    0  0.61721757583E-01 -0.55674534426E-01  0.10051533361E+00  0.13163223994E+00  0.17733729395E-01 0.  0.
         14    1    1    2    0    0  0.36398110974E-02  0.22816453952E-01  0.26490745422E-02  0.23256319393E-01  0.00000000000E+00 0. -1.
     999901    1    3    3    0    0 -0.65361568681E-01  0.32858080474E-01 -0.10316440815E+00  0.88904144067E+00  0.88000000000E+00 0. -1.
        -11    1    4    4    0    0  0.23362515236E-01 -0.15701370200E-01  0.45826707396E-01  0.53783718503E-01  0.51100000000E-03 0. -1.
         11    1    4    4    0    0  0.38359242347E-01 -0.39973164226E-01  0.54688626214E-01  0.77848521437E-01  0.51100000000E-03 0.  1.
</event>
<event>
 8    1  0.1093753E+005  0.1043930E+01  0.7957747E-01            NaN
         13   -1    0    0    0    0  0.00000000000E+00  0.00000000000E+00  0.74505805969E-08  0.10566000000E+00  0.10566000000E+00 0.  1.
     999900   -1    0    0    0    0 -0.00000000000E+00 -0.00000000000E+00 -0.74505805969E-08  0.93827000000E+00  0.93827000000E+00 0.  1.
     999902    2    1    2    0    0  0.24120634017E-01 -0.40917805093E-02 -0.36706750732E-02  0.10191909315E+01  0.10188906386E+01 0.  0.
     999903    2    3    3    0    0 -0.10109865084E+00  0.73218802338E-01  0.94374397926E-02  0.12687449764E+00  0.20643223216E-01 0.  0.
         14    1    1    2    0    0 -0.24120634017E-01  0.40917805093E-02  0.36706750732E-02  0.24739068467E-01  0.00000000000E+00 0. -1.
     999901    1    3    3    0    0  0.12521928485E+00 -0.77310582847E-01 -0.13108114866E-01  0.89231643389E+00  0.88000000000E+00 0.  1.
        -11    1    4    4    0    0 -0.33117290116E-01  0.31117706421E-01  0.11520819573E-01  0.46883440170E-01  0.51100000000E-03 0.  1.
         11    1    4    4    0    0 -0.67981360721E-01  0.42101095917E-01 -0.20833797806E-02  0.79991057471E-01  0.51100000000E-03 0. -1.
</event>
<event>
 8    1  0.1093753E+005  0.1043930E+01  0.7957747E-01            NaN
         13   -1    0    0    0    0  0.00000000000E+00  0.00000000000E+00  0.74505805969E-08  0.10566000000E+00  0.10566000000E+00 0.  1.
     999900   -1    0    0    0    0 -0.00000000000E+00 -0.00000000000E+00 -0.74505805969E-08  0.93827000000E+00  0.93827000000E+00 0. -1.
     999902    2    1    2    0    0 -0.15393062573E-01  0.14759468951E-01 -0.12001395972E-01  0.10194591642E+01  0.10191654261E+01 0.  0.
     999903    2    3    3    0    0  0.39976619888E-01  0.68006854009E-01  0.10007188667E+00  0.12903145438E+00  0.20289686721E-01 0.  0.
         14    1    1    2    0    0  0.15393062573E-01 -0.14759468951E-01  0.12001395972E-01  0.24470835792E-01  0.00000000000E+00 0.  1.
     999901    1    3    3    0    0 -0.55369682461E-01 -0.53247385058E-01 -0.11207328264E+00  0.89042770983E+00  0.88000000000E+00 0. -1.
        -11    1    4    4    0    0  0.14549947214E-01  0.92096507871E-02  0.24682476378E-01  0.30099906855E-01  0.51100000000E-03 0. -1.
         11    1    4    4    0    0  0.25426672674E-01  0.58797203222E-01  0.75389410292E-01  0.98931547522E-01  0.51100000000E-03 0.  1.
</event>
<event>
 8    1  0.1093753E+005  0.1043930E+01  0.7957747E-01            NaN
         13   -1    0    0    0    0  0.00000000000E+00  0.00000000000E+00  0.74505805969E-08  0.10566000000E+00  0.10566000000E+00 0. -1.
     999900   -1    0    0    0    0 -0.00000000000E+00 -0.00000000000E+00 -0.74505805969E-08  0.93827000000E+00  0.93827000000E+00 0. -1.
     999902    2    1    2    0    0  0.10396616312E-01 -0.24205786077E-01 -0.12585948581E-01  0.10147338391E+01  0.10143137327E+01 0.  0.
     999903    2    3    3    0    0  0.32029572394E-01  0.95426193650E-01  0.67346251266E-01  0.12278711874E+00  0.20226394320E-01 0.  0.
         14    1    1    2    0    0 -0.10396616312E-01  0.24205786077E-01  0.12585948581E-01  0.29196160912E-01  0.00000000000E+00 0. -1.
     999901    1    3    3    0    0 -0.21632956083E-01 -0.11963197973E+00 -0.79932199848E-01  0.89194672035E+00  0.88000000000E+00 0. -1.
        -11    1    4    4    0    0  0.19597049794E-01  0.29807593976E-01  0.27193329740E-01  0.44858391886E-01  0.51100000000E-03 0.  1.
         11    1    4    4    0    0  0.12432522601E-01  0.65618599674E-01  0.40152921526E-01  0.77928726856E-01  0.51100000000E-03 0. -1.
</event>
<event>
 8    1  0.1093753E+005  0.1043930E+01  0.7957747E-01            NaN
         13   -1    0    0    0    0  0.00000000000E+00  0.00000000000E+00  0.74505805969E-08  0.10566000000E+00  0.10566000000E+00 0.  1.
     999900   -1    0    0    0    0 -0.00000000000E+00 -0.00000000000E+00 -0.74505805969E-08  0.93827000000E+00  0.93827000000E+00 0.  1.
     999902    2    1    2    0    0 -0.14830191263E-01 -0.13573435185E-01 -0.11550041230E-01  0.10207443111E+01  0.10204809516E+01 0.  0.
     999903    2    3    3    0    0  0.37698709549E-01 -0.58085821500E-01 -0.11110377163E+00  0.13245855577E+00  0.20151068591E-01 0.  0.
         14    1    1    2    0    0  0.14830191263E-01  0.13573435185E-01  0.11550041230E-01  0.23185688863E-01  0.00000000000E+00 0.  1.
     999901    1    3    3    0    0 -0.52528900812E-01  0.44512386314E-01  0.99553730398E-01  0.88828575537E+00  0.88000000000E+00 0. -1.
        -11    1    4    4    0    0  0.72204802117E-02 -0.17883174363E-01 -0.17140023517E-01  0.25806681052E-01  0.51100000000E-03 0. -1.
         11    1    4    4    0    0  0.30478229337E-01 -0.40202647137E-01 -0.93963748111E-01  0.10665187472E+00  0.51100000000E-03 0.  1.
</event>
<event>
 8    1  0.1093753E+005  0.1043930E+01  0.7957747E-01            NaN
         13   -1    0    0    0    0  0.00000000000E+00  0.00000000000E+00  0.74505805969E-08  0.10566000000E+00  0.10566000000E+00 0.  1.
     999900   -1    0    0    0    0 -0.00000000000E+00 -0.00000000000E+00 -0.74505805969E-08  0.93827000000E+00  0.93827000000E+00 0.  1.
     999902    2    1    2    0    0 -0.11015778043E-01 -0.11964051452E-01 -0.16816256067E-01  0.10205361469E+01  0.10202679819E+01 0.  0.
     999903    2    3    3    0    0  0.54443403017E-02 -0.12858314723E+00  0.20763295338E-01  0.13189495293E+00  0.20047383414E-01 0.  0.
         14    1    1    2    0    0  0.11015778043E-01  0.11964051452E-01  0.16816256067E-01  0.23393853063E-01  0.00000000000E+00 0.  1.
     999901    1    3    3    0    0 -0.16460118344E-01  0.11661909578E+00 -0.37579551405E-01  0.88864119400E+00  0.88000000000E+00 0.  1.
        -11    1    4    4    0    0 -0.88578597055E-03 -0.34827520242E-01  0.14426451252E-01  0.37711064686E-01  0.51100000000E-03 0.  1.
         11    1    4    4    0    0  0.63301262723E-02 -0.93755626992E-01  0.63368440865E-02  0.94183888247E-01  0.51100000000E-03 0. -1.
</event>
<event>
 8    1  0.1093753E+005  0.1043930E+01  0.7957747E-01            NaN
         13   -1    0    0    0    0  0.00000000000E+00  0.00000000000E+00  0.74505805969E-08  0.10566000000E+00  0.10566000000E+00 0.  1.
     999900   -1    0    0    0    0 -0.00000000000E+00 -0.00000000000E+00 -0.74505805969E-08  0.93827000000E+00  0.93827000000E+00 0. -1.
     999902    2    1    2    0    0  0.23221397324E-01 -0.28330987742E-02 -0.32144976421E-02  0.10203165984E+01  0.10200433168E+01 0.  0.
     999903    2    3    3    0    0 -0.45905614748E-01 -0.11608164588E+00 -0.27573986574E-01  0.13003733771E+00  0.23814081703E-01 0.  0.
         14    1    1    2    0    0 -0.23221397324E-01  0.28330987742E-02  0.32144976421E-02  0.23613401649E-01  0.00000000000E+00 0. -1.
     999901    1    3    3    0    0  0.69127012072E-01  0.11324854711E+00  0.24359488932E-01  0.89027926064E+00  0.88000000000E+00 0. -1.
        -11    1    4    4    0    0 -0.12017911955E-01 -0.12710541546E-01  0.11065026617E-02  0.17534923532E-01  0.51100000000E-03 0.  1.
         11    1    4    4    0    0 -0.33887702793E-01 -0.10337110434E+00 -0.28680489236E-01  0.11250241418E+00  0.51100000000E-03 0. -1.
</event>
<event>
 8    1  0.1093753E+005  0.1043930E+01  0.7957747E-01            NaN
         13   -1    0    0    0    0  0.00000000000E+00  0.00000000000E+00  0.74505805969E-08  0.10566000000E+00  0.10566000000E+00 0.  1.
     999900   -1    0    0    0    0 -0.00000000000E+00 -0.00000000000E+00 -0.74505805969E-08  0.93827000000E+00  0.93827000000E+00 0. -1.
     999902    2    1    2    0    0  0.19098683041E-01  0.20681692945E-02 -0.14200324171E-01  0.10200409602E+01  0.10197611849E+01 0.  0.
     999903    2    3    3    0    0  0.38925619334E-02 -0.10965798080E-01  0.12643678263E+00  0.12864884317E+00  0.20709033801E-01 0.  0.
         14    1    1    2    0    0 -0.19098683041E-01 -0.20681692945E-02  0.14200324171E-01  0.23889039844E-01  0.00000000000E+00 0.  1.
     999901    1    3    3    0    0  0.15206121107E-01  0.13033967375E-01 -0.14063710680E+00  0.89139211699E+00  0.88000000000E+00 0. -1.
        -11    1    4    4    0    0 -0.51532897034E-02 -0.10585238320E-01  0.38956339778E-01  0.40699646128E-01  0.51100000000E-03 0. -1.
         11    1    4    4    0    0  0.90458516368E-02 -0.38055976062E-03  0.87480442849E-01  0.87949197038E-01  0.51100000000E-03 0.  1.
</event>
<event>
 7    1  0.1093753E+005  0.1043930E+01  0.7957747E-01            NaN
         13   -1    0    0    0    0  0.00000000000E+00  0.00000000000E+00  0.74505805969E-08  0.10566000000E+00  0.10566000000E+00 0. -1.
     999900   -1    0    0    0    0 -0.00000000000E+00 -0.00000000000E+00 -0.74505805969E-08  0.93827000000E+00  0.93827000000E+00 0. -1.
     999902    2    1    2    0    0  0.73583181545E-02  0.11264298557E-01  0.19245524178E-01  0.10204476775E+01  0.10201774567E+01 0.  0.
         14    1    1    2    0    0 -0.73583181545E-02 -0.11264298557E-01 -0.19245524178E-01  0.23482322477E-01  0.00000000000E+00 0.  1.
     999901    1    3    3    0    0  0.87880253957E-01 -0.84123595061E-01  0.19755078116E-01  0.88858875831E+00  0.88000000000E+00 0.  1.
        -11    1    3    3    0    0 -0.37888730530E-01  0.67261270048E-01  0.14651499108E-01  0.78578380594E-01  0.51100000000E-03 0.  1.
         11    1    3    3    0    0 -0.42633205272E-01  0.28126623569E-01 -0.15161053046E-01  0.53280538620E-01  0.51100000000E-03 0. -1.
</event>
<event>
 8    1  0.1093753E+005  0.1043930E+01  0.7957747E-01            NaN
         13   -1    0    0    0    0  0.00000000000E+00  0.00000000000E+00  0.74505805969E-08  0.10566000000E+00  0.10566000000E+00 0.  1.
     999900   -1    0    0    0    0 -0.00000000000E+00 -0.00000000000E+00 -0.74505805969E-08  0.93827000000E+00  0.93827000000E+00 0. -1.
     999902    2    1    2    0    0 -0.16648230181E-01  0.77465042912E-02  0.14590157709E-01  0.10204769704E+01  0.10202074311E+01 0.  0.
     999903    2    3    3    0    0 -0.10735817178E+00  0.97244047358E-02  0.76458347890E-01  0.13365123859E+00  0.19910638315E-01 0.  0.
         14    1    1    2    0    0  0.16648230181E-01 -0.77465042912E-02 -0.14590157709E-01  0.23453029631E-01  0.00000000000E+00 0. -1.
     999901    1    3    3    0    0  0.90709941600E-01 -0.19779004447E-02 -0.61868190182E-01  0.88682573178E+00  0.88000000000E+00 0. -1.
        -11    1    4    4    0    0 -0.25143150236E-01 -0.38074255361E-02  0.11092175152E-01  0.27748368666E-01  0.51100000000E-03 0.  1.
         11    1    4    4    0    0 -0.82215021545E-01  0.13531830272E-01  0.65366172738E-01  0.10590286992E+00  0.51100000000E-03 0. -1.
</event>
<event>
 8    1  0.1093753E+005  0.1043930E+01  0.7957747E-01            NaN
         13   -1    0    0    0    0  0.00000000000E+00  0.00000000000E+00  0.74505805969E-08  0.10566000000E+00  0.10566000000E+00 0. -1.
     999900   -1    0    0    0    0 -0.00000000000E+00 -0.00000000000E+00 -0.74505805969E-08  0.93827000000E+00  0.93827000000E+00 0. -1.
     999902    2    1    2    0    0  0.16084106652E-01  0.15764208808E-01  0.51737417731E-02  0.10208220713E+01  0.10205604954E+01 0.  0.
     999903    2    3    3    0    0  0.78864854820E-01  0.85984919921E-01  0.61027708124E-01  0.13403459044E+00  0.25056306495E-01 0.  0.
         14    1    1    2    0    0 -0.16084106652E-01 -0.15764208808E-01 -0.51737417731E-02  0.23107928728E-01  0.00000000000E+00 0.  1.
     999901    1    3    3    0    0 -0.62780748167E-01 -0.70220711113E-01 -0.55853966351E-01  0.88678748084E+00  0.88000000000E+00 0. -1.
        -11    1    4    4    0    0  0.26463161623E-01  0.45492276474E-01  0.33002787618E-01  0.62123194166E-01  0.51100000000E-03 0.  1.
         11    1    4    4    0    0  0.52401693197E-01  0.40492643447E-01  0.28024920506E-01  0.71911396270E-01  0.51100000000E-03 0. -1.
</event>
<event>
 8    1  0.1093753E+005  0.1043930E+01  0.7957747E-01            NaN
         13   -1    0    0    0    0  0.00000000000E+00  0.00000000000E+00  0.74505805969E-08  0.10566000000E+00  0.10566000000E+00 0. -1.
     999900   -1    0    0    0    0 -0.00000000000E+00 -0.00000000000E+00 -0.74505805969E-08  0.93827000000E+00  0.93827000000E+00 0.  1.
     999902    2    1    2    0    0  0.21659253912E-01  0.70882610411E-02  0.23438557131E-02  0.10210201684E+01  0.10207631086E+01 0.  0.
     999903    2    3    3    0    0 -0.90792293271E-02 -0.51158937173E-03 -0.12875096230E+00  0.13074579305E+00  0.20855646210E-01 0.  0.
         14    1    1    2    0    0 -0.21659253912E-01 -0.70882610411E-02 -0.23438557131E-02  0.22909831606E-01  0.00000000000E+00 0.  1.
     999901    1    3    3    0    0  0.30738483239E-01  0.75998504128E-02  0.13109481801E+00  0.89027437534E+00  0.88000000000E+00 0. -1.
        -11    1    4    4    0    0 -0.45115670650E-02 -0.91660647061E-02 -0.34435481740E-01  0.35922618268E-01  0.51100000000E-03 0. -1.
         11    1    4    4    0    0 -0.45676622620E-02  0.86544753344E-02 -0.94315480561E-01  0.94823174785E-01  0.51100000000E-03 0.  1.
</event>
<event>
 8    1  0.1093753E+005  0.1043930E+01  0.7957747E-01            NaN
         13   -1    0    0    0    0  0.00000000000E+00  0.00000000000E+00  0.74505805969E-08  0.10566000000E+00  0.10566000000E+00 0.  1.
     999900   -1    0    0    0    0 -0.00000000000E+00 -0.00000000000E+00 -0.74505805969E-08  0.93827000000E+00  0.93827000000E+00 0.  1.
     999902    2    1    2    0    0  0.21440725667E-01 -0.22422057336E-02  0.83265212026E-02  0.10208201934E+01  0.10205585746E+01 0.  0.
     999903    2    3    3    0    0 -0.99886345058E-01 -0.56684059650E-01 -0.54104733593E-01  0.12864205253E+00  0.20762729463E-01 0.  0.
         14    1    1    2    0    0 -0.21440725667E-01  0.22422057336E-02 -0.83265212026E-02  0.23109806555E-01  0.00000000000E+00 0. -1.
     999901    1    3    3    0    0  0.12132707073E+00  0.54441853916E-01  0.62431254796E-01  0.89217814091E+00  0.88000000000E+00 0. -1.
        -11    1    4    4    0    0 -0.65650490603E-01 -0.40660492274E-01 -0.25811801020E-01  0.81423416419E-01  0.51100000000E-03 0. -1.
         11    1    4    4    0    0 -0.34235854456E-01 -0.16023567375E-01 -0.28292932573E-01  0.47218636113E-01  0.51100000000E-03 0.  1.
</event>
<event>
 8    1  0.1093753E+005  0.1043930E+01  0.7957747E-01            NaN
         13   -1    0    0    0    0  0.00000000000E+00  0.00000000000E+00  0.74505805969E-08  0.10566000000E+00  0.10566000000E+00 0.  1.
     999900   -1    0    0    0    0 -0.00000000000E+00 -0.00000000000E+00 -0.74505805969E-08  0.93827000000E+00  0.93827000000E+00 0. -1.
     999902    2    1    2    0    0  0.20025311501E-01  0.18313853905E-01  0.57819511380E-02  0.10161839858E+01  0.10158051248E+01 0.  0.
     999903    2    3    3    0    0  0.90721197103E-01  0.88425346423E-01  0.23692794870E-01  0.13038811317E+00  0.19756873081E-01 0.  0.
         14    1    1    2    0    0 -0.20025311501E-01 -0.18313853905E-01 -0.57819511380E-02  0.27746014210E-01  0.00000000000E+00 0. -1.
     999901    1    3    3    0    0 -0.70695885602E-01 -0.70111492517E-01 -0.17910843732E-01  0.88579587262E+00  0.88000000000E+00 0.  1.
        -11    1    4    4    0    0  0.82183434241E-02  0.10616678944E-01  0.86704011717E-02  0.15990372663E-01  0.51100000000E-03 0. -1.
         11    1    4    4    0    0  0.82502853679E-01  0.77808667479E-01  0.15022393698E-01  0.11439774051E+00  0.51100000000E-03 0.  1.
</event>
<event>
 8    1  0.1093753E+005  0.1043930E+01  0.7957747E-01            NaN
         13   -1    0    0    0    0  0.00000000000E+00  0.00000000000E+00  0.74505805969E-08  0.10566000000E+00  0.10566000000E+00 0. -1.
     999900   -1    0    0    0    0 -0.00000000000E+00 -0.00000000000E+00 -0.74505805969E-08  0.93827000000E+00  0.93827000000E+00 0.  1.
     999902    2    1    2    0    0 -0.20206195178E-01  0.92882595429E-02 -0.27657305404E-02  0.10215199274E+01  0.10212740821E+01 0.  0.
     999903    2    3    3    0    0  0.26345930787E-01 -0.11597621160E-01 -0.12710787549E+00  0.13131529392E+00  0.16083579221E-01 0.  0.
         14    1    1    2    0    0  0.20206195178E-01 -0.92882595429E-02  0.27657305404E-02  0.22410072609E-01  0.00000000000E+00 0. -1.
     999901    1    3    3    0    0 -0.46552125966E-01  0.20885880703E-01  0.12434214495E+00  0.89020463347E+00  0.88000000000E+00 0. -1.
        -11    1    4    4    0    0  0.94432660596E-02 -0.84963092424E-04 -0.18282705745E-01  0.20583997254E-01  0.51100000000E-03 0. -1.
         11    1    4    4    0    0  0.16902664728E-01 -0.11512658067E-01 -0.10882516974E+00  0.11073129667E+00  0.51100000000E-03 0.  1.
</event>
<event>
 8    1  0.1093753E+005  0.1043930E+01  0.7957747E-01            NaN
         13   -1    0    0    0    0  0.00000000000E+00  0.00000000000E+00  0.74505805969E-08  0.10566000000E+00  0.10566000000E+00 0.  1.
     999900   -1    0    0    0    0 -0.00000000000E+00 -0.00000000000E+00 -0.74505805969E-08  0.93827000000E+00  0.93827000000E+00 0. -1.
     999902    2    1    2    0    0  0.19548322719E-01  0.10200344183E-02  0.13262083724E-01  0.10202855449E+01  0.10200115357E+01 0.  0.
     999903    2    3    3    0    0  0.42592814432E-01 -0.91125279891E-02  0.12429881547E+00  0.13295084301E+00  0.18125813687E-01 0.  0.
         14    1    1    2    0    0 -0.19548322719E-01 -0.10200344183E-02 -0.13262083724E-01  0.23644455081E-01  0.00000000000E+00 0.  1.
     999901    1    3    3    0    0 -0.23044491712E-01  0.10132562407E-01 -0.11103673175E+00  0.88733470191E+00  0.88000000000E+00 0. -1.
        -11    1    4    4    0    0  0.11863584936E-01 -0.81286146372E-02  0.59658711183E-01  0.61369715369E-01  0.51100000000E-03 0. -1.
         11    1    4    4    0    0  0.30729229496E-01 -0.98391335195E-03  0.64640104287E-01  0.71581127639E-01  0.51100000000E-03 0.  1.
</event>
<event>
 8    1  0.1093753E+005  0.1043930E+01  0.7957747E-01            NaN
         13   -1    0    0    0    0  0.00000000000E+00  0.00000000000E+00  0.74505805969E-08  0.10566000000E+00  0.10566000000E+00 0.  1.
     999900   -1    0    0    0    0 -0.00000000000E+00 -0.00000000000E+00 -0.74505805969E-08  0.93827000000E+00  0.93827000000E+00 0. -1.
     999902    2    1    2    0    0  0.74328600924E-02 -0.48010881641E-02 -0.22453782109E-01  0.10197955809E+01  0.10195099590E+01 0.  0.
     999903    2    3    3    0    0  0.92048825374E-01  0.18911105951E-01 -0.91484646040E-01  0.13272884722E+00  0.20417890281E-01 0.  0.
         14    1    1    2    0    0 -0.74328600924E-02  0.48010881641E-02  0.22453782109E-01  0.24134419150E-01  0.00000000000E+00 0.  1.
     999901    1    3    3    0    0 -0.84615965281E-01 -0.23712194115E-01  0.69030863931E-01  0.88706673363E+00  0.88000000000E+00 0.  1.
        -11    1    4    4    0    0  0.44474100531E-01 -0.82381342917E-03 -0.38459672975E-01  0.58805032548E-01  0.51100000000E-03 0.  1.
         11    1    4    4    0    0  0.47574724843E-01  0.19734919380E-01 -0.53024973065E-01  0.73923814677E-01  0.51100000000E-03 0. -1.
</event>
<event>
 8    1  0.1093753E+005  0.1043930E+01  0.7957747E-01            NaN
         13   -1    0    0    0    0  0.00000000000E+00  0.00000000000E+00  0.74505805969E-08  0.10566000000E+00  0.10566000000E+00 0.  1.
     999900   -1    0    0    0    0 -0.00000000000E+00 -0.00000000000E+00 -0.74505805969E-08  0.93827000000E+00  0.93827000000E+00 0.  1.
     999902    2    1    2    0    0  0.17078946383E-01  0.39803559548E-02  0.15378182133E-01  0.10206057180E+01  0.10203391640E+01 0.  0.
     999903    2    3    3    0    0 -0.86527001654E-01 -0.69730473727E-01  0.64691748948E-01  0.13010063285E+00  0.19796244718E-01 0.  0.
         14    1    1    2    0    0 -0.17078946383E-01 -0.39803559548E-02 -0.15378182133E-01  0.23324281957E-01  0.00000000000E+00 0. -1.
     999901    1    3    3    0    0  0.10360594804E+00  0.73710829682E-01 -0.49313566814E-01  0.89050508519E+00  0.88000000000E+00 0.  1.
        -11    1    4    4    0    0 -0.65515402720E-01 -0.44480913413E-01  0.38328871204E-01  0.87978310625E-01  0.51100000000E-03 0. -1.
         11    1    4    4    0    0 -0.21011598934E-01 -0.25249560314E-01  0.26362877743E-01  0.42122322226E-01  0.51100000000E-03 0.  1.
</event>
<event>
 8    1  0.1093753E+005  0.1043930E+01  0.7957747E-01            NaN
         13   -1    0    0    0    0  0.00000000000E+00  0.00000000000E+00  0.74505805969E-08  0.10566000000E+00  0.10566000000E+00 0. -1.
     999900   -1    0    0    0    0 -0.00000000000E+00 -0.00000000000E+00 -0.74505805969E-08  0.93827000000E+00  0.93827000000E+00 0.  1.
     999902    2    1    2    0    0  0.35582686141E-02  0.10359808085E-01  0.18537045400E-01  0.10223984197E+01  0.10221716684E+01 0.  0.
     999903    2    3    3    0    0  0.11310317197E+00  0.57868119111E-01 -0.33181027490E-01  0.13283004989E+00  0.20044820993E-01 0.  0.
         14    1    1    2    0    0 -0.35582686141E-02 -0.10359808085E-01 -0.18537045400E-01  0.21531580324E-01  0.00000000000E+00 0.  1.
     999901    1    3    3    0    0 -0.10954490335E+00 -0.47508311026E-01  0.51718072890E-01  0.88956836979E+00  0.88000000000E+00 0. -1.
        -11    1    4    4    0    0  0.52176667325E-01  0.15605054966E-01 -0.14609146451E-01  0.56388036272E-01  0.51100000000E-03 0. -1.
         11    1    4    4    0    0  0.60926504644E-01  0.42263064144E-01 -0.18571881039E-01  0.76442013614E-01  0.51100000000E-03 0.  1.
</event>
<event>
 8    1  0.1093753E+005  0.1043930E+01  0.7957747E-01            NaN
         13   -1    0    0    0    0  0.00000000000E+00  0.00000000000E+00  0.74505805969E-08  0.10566000000E+00  0.10566000000E+00 0.  1.
     999900   -1    0    0    0    0 -0.00000000000E+00 -0.00000000000E+00 -0.74505805969E-08  0.93827000000E+00  0.93827000000E+00 0. -1.
     999902    2    1    2    0    0  0.19520937190E-01 -0.10636965169E-01  0.73605136550E-02  0.10205122892E+01  0.10202435706E+01 0.  0.
     999903    2    3    3    0    0  0.79040586760E-01  0.89554109559E-01  0.51677699944E-01  0.13172387056E+00  0.20328317953E-01 0.  0.
         14    1    1    2    0    0 -0.19520937190E-01  0.10636965169E-01 -0.73605136550E-02  0.23417710777E-01  0.00000000000E+00 0.  1.
     999901    1    3    3    0    0 -0.59519649570E-01 -0.10019107473E+00 -0.44317186289E-01  0.88878841866E+00  0.88000000000E+00 0. -1.
        -11    1    4    4    0    0  0.35615132261E-01  0.50315704182E-01  0.18111490262E-01  0.64252586981E-01  0.51100000000E-03 0.  1.
         11    1    4    4    0    0  0.43425454500E-01  0.39238405377E-01  0.33566209682E-01  0.67471283584E-01  0.51100000000E-03 0. -1.
</event>
<event>
 8    1  0.1093753E+005  0.1043930E+01  0.7957747E-01            NaN
         13   -1    0    0    0    0  0.00000000000E+00  0.00000000000E+00  0.74505805969E-08  0.10566000000E+00  0.10566000000E+00 0. -1.
     999900   -1    0    0    0    0 -0.00000000000E+00 -0.00000000000E+00 -0.74505805969E-08  0.93827000000E+00  0.93827000000E+00 0.  1.
     999902    2    1    2    0    0  0.64609595289E-02 -0.14624698005E-01  0.17958855688E-01  0.10198853273E+01  0.10196018510E+01 0.  0.
     999903    2    3    3    0    0 -0.11714683586E-01  0.63321481435E-01  0.11309660182E+00  0.13114624764E+00  0.16175694906E-01 0.  0.
         14    1    1    2    0    0 -0.64609595289E-02  0.14624698005E-01 -0.17958855688E-01  0.24044672744E-01  0.00000000000E+00 0.  1.
     999901    1    3    3    0    0  0.18175643115E-01 -0.77946179440E-01 -0.95137746130E-01  0.88873907961E+00  0.88000000000E+00 0.  1.
        -11    1    4    4    0    0 -0.87739011119E-02  0.40826928609E-01  0.57232785389E-01  0.70849645622E-01  0.51100000000E-03 0.  1.
         11    1    4    4    0    0 -0.29407824738E-02  0.22494552826E-01  0.55863816428E-01  0.60296602021E-01  0.51100000000E-03 0. -1.
</event>
<event>
 8    1  0.1093753E+005  0.1043930E+01  0.7957747E-01            NaN
         13   -1    0    0    0    0  0.00000000000E+00  0.00000000000E+00  0.74505805969E-08  0.10566000000E+00  0.10566000000E+00 0.  1.
     999900   -1    0    0    0    0 -0.00000000000E+00 -0.00000000000E+00 -0.74505805969E-08  0.93827000000E+00  0.93827000000E+00 0. -1.
     999902    2    1    2    0    0  0.19395412451E-01  0.97504819273E-02 -0.88496052409E-02  0.10204871027E+01  0.10202177990E+01 0.  0.
     999903    2    3    3    0    0  0.11144039184E+00  0.62761767116E-01 -0.33672539068E-01  0.13375227612E+00  0.19945704693E-01 0.  0.
         14    1    1    2    0    0 -0.19395412451E-01 -0.97504819273E-02  0.88496052409E-02  0.23442897323E-01  0.00000000000E+00 0. -1.
     999901    1    3    3    0    0 -0.92044979384E-01 -0.53011285189E-01  0.24822933828E-01  0.88673482656E+00  0.88000000000E+00 0. -1.
        -11    1    4    4    0    0  0.57055882951E-01  0.34840047851E-01 -0.75835858166E-02  0.67282795783E-01  0.51100000000E-03 0. -1.
         11    1    4    4    0    0  0.54384508884E-01  0.27921719265E-01 -0.26088953252E-01  0.66469480336E-01  0.51100000000E-03 0.  1.
</event>
<event>
 8    1  0.1093753E+005  0.1043930E+01  0.7957747E-01            NaN
         13   -1    0    0    0    0  0.00000000000E+00  0.00000000000E+00  0.74505805969E-08  0.10566000000E+00  0.10566000000E+00 0. -1.
     999900   -1    0    0    0    0 -0.00000000000E+00 -0.00000000000E+00 -0.74505805969E-08  0.93827000000E+00  0.93827000000E+00 0.  1.
     999902    2    1    2    0    0 -0.18141341565E-01  0.15264287349E-01 -0.40542593158E-02  0.10198770634E+01  0.10195933898E+01 0.  0.
     999903    2    3    3    0    0 -0.24595916756E-01 -0.41776973198E-01 -0.11951498681E+00  0.13048033157E+00  0.19773978904E-01 0.  0.
         14    1    1    2    0    0  0.18141341565E-01 -0.15264287349E-01  0.40542593158E-02  0.24052936633E-01  0.00000000000E+00 0. -1.
     999901    1    3    3    0    0  0.64545751907E-02  0.57041260547E-01  0.11546072750E+00  0.88939673180E+00  0.88000000000E+00 0. -1.
        -11    1    4    4    0    0 -0.27411275102E-01 -0.40925160622E-01 -0.11445618916E+00  0.12460628850E+00  0.51100000000E-03 0. -1.
         11    1    4    4    0    0  0.28153583461E-02 -0.85181257549E-03 -0.50587976524E-02  0.58740430683E-02  0.51100000000E-03 0.  1.
</event>
<event>
 8    1  0.1093753E+005  0.1043930E+01  0.7957747E-01            NaN
         13   -1    0    0    0    0  0.00000000000E+00  0.00000000000E+00  0.74505805969E-08  0.10566000000E+00  0.10566000000E+00 0.  1.
     999900   -1    0    0    0    0 -0.00000000000E+00 -0.00000000000E+00 -0.74505805969E-08  0.93827000000E+00  0.93827000000E+00 0. -1.
     999902    2    1    2    0    0 -0.13516722322E-02  0.43992379691E-02  0.23164533711E-01  0.10203127196E+01  0.10200393472E+01 0.  0.
     999903    2    3    3    0    0  0.44847739370E-01  0.32991203002E-02  0.12373463406E+00  0.13337983543E+00  0.21394319658E-01 0.  0.
         14    1    1    2    0    0  0.13516722322E-02 -0.43992379691E-02 -0.23164533711E-01  0.23617280423E-01  0.00000000000E+00 0. -1.
     999901    1    3    3    0    0 -0.46199411602E-01  0.11001176690E-02 -0.10057010035E+00  0.88693288414E+00  0.88000000000E+00 0. -1.
        -11    1    4    4    0    0  0.27052139386E-01 -0.79779059932E-02  0.80116943954E-01  0.84937924739E-01  0.51100000000E-03 0.  1.
         11    1    4    4    0    0  0.17795599984E-01  0.11277026293E-01  0.43617690104E-01  0.48441910695E-01  0.51100000000E-03 0. -1.
</event>
<event>
 8    1  0.1093753E+005  0.1043930E+01  0.7957747E-01            NaN
         13   -1    0    0    0    0  0.00000000000E+00  0.00000000000E+00  0.74505805969E-08  0.10566000000E+00  0.10566000000E+00 0. -1.
     999900   -1    0    0    0    0 -0.00000000000E+00 -0.00000000000E+00 -0.74505805969E-08  0.93827000000E+00  0.93827000000E+00 0.  1.
     999902    2    1    2    0    0 -0.13355725844E-01 -0.99505132990E-02  0.16790902984E-01  0.10202799989E+01  0.10200058596E+01 0.  0.
     999903    2    3    3    0    0  0.11144899452E+00 -0.67680033037E-03  0.64489946019E-01  0.13014662764E+00  0.18917058719E-01 0.  0.
         14    1    1    2    0    0  0.13355725844E-01  0.99505132990E-02 -0.16790902984E-01  0.23650001073E-01  0.00000000000E+00 0. -1.
     999901    1    3    3    0    0 -0.12480472036E+00 -0.92737129686E-02 -0.47699043035E-01  0.89013337129E+00  0.88000000000E+00 0.  1.
        -11    1    4    4    0    0  0.68395612935E-01 -0.76158084368E-02  0.32799774306E-01  0.76236780640E-01  0.51100000000E-03 0. -1.
         11    1    4    4    0    0  0.43053381582E-01  0.69390081064E-02  0.31690171712E-01  0.53909846997E-01  0.51100000000E-03 0.  1.
</event>
<event>
 8    1  0.1093753E+005  0.1043930E+01  0.7957747E-01            NaN
         13   -1    0    0    0    0  0.00000000000E+00  0.00000000000E+00  0.74505805969E-08  0.10566000000E+00  0.10566000000E+00 0. -1.
     999900   -1    0    0    0    0 -0.00000000000E+00 -0.00000000000E+00 -0.74505805969E-08  0.93827000000E+00  0.93827000000E+00 0. -1.
     999902    2    1    2    0    0 -0.37786585431E-02  0.22512352191E-01  0.67761920031E-02  0.10201182164E+01  0.10198402690E+01 0.  0.
     999903    2    3    3    0    0 -0.85810744510E-01  0.97808452575E-01  0.19890279863E-01  0.13300450034E+00  0.19094413066E-01 0.  0.
         14    1    1    2    0    0  0.37786585431E-02 -0.22512352191E-01 -0.67761920031E-02  0.23811783629E-01  0.00000000000E+00 0.  1.
     999901    1    3    3    0    0  0.82032085967E-01 -0.75296100385E-01 -0.13114087860E-01  0.88711371603E+00  0.88000000000E+00 0. -1.
        -11    1    4    4    0    0 -0.54347487578E-01  0.71810702807E-01  0.76136805605E-02  0.90380615712E-01  0.51100000000E-03 0. -1.
         11    1    4    4    0    0 -0.31463256932E-01  0.25997749768E-01  0.12276599303E-01  0.42623884633E-01  0.51100000000E-03 0.  1.
</event>
<event>
 8    1  0.1093753E+005  0.1043930E+01  0.7957747E-01            NaN
         13   -1    0    0    0    0  0.00000000000E+00  0.00000000000E+00  0.74505805969E-08  0.10566000000E+00  0.10566000000E+00 0.  1.
     999900   -1    0    0    0    0 -0.00000000000E+00 -0.00000000000E+00 -0.74505805969E-08  0.93827000000E+00  0.93827000000E+00 0. -1.
     999902    2    1    2    0    0 -0.21961017223E-01  0.10288855920E-01 -0.36405095256E-02  0.10194065389E+01  0.10191115206E+01 0.  0.
     999903    2    3    3    0    0 -0.46465749485E-01 -0.10701428000E+00 -0.53226646357E-01  0.12990145599E+00  0.20741031487E-01 0.  0.
         14    1    1    2    0    0  0.21961017223E-01 -0.10288855920E-01  0.36405095256E-02  0.24523461078E-01  0.00000000000E+00 0. -1.
     999901    1    3    3    0    0  0.24504732262E-01  0.11730313592E+00  0.49586136831E-01  0.88950508293E+00  0.88000000000E+00 0. -1.
        -11    1    4    4    0    0 -0.54331854445E-02 -0.18455133323E-01 -0.11653170631E-02  0.19280314699E-01  0.51100000000E-03 0. -1.
         11    1    4    4    0    0 -0.41032564041E-01 -0.88559146673E-01 -0.52061329294E-01  0.11062114129E+00  0.51100000000E-03 0.  1.
</event>
<event>
 8    1  0.1093753E+005  0.1043930E+01  0.7957747E-01            NaN
         13   -1    0    0    0    0  0.00000000000E+00  0.00000000000E+00  0.74505805969E-08  0.10566000000E+00  0.10566000000E+00 0.  1.
     999900   -1    0    0    0    0 -0.00000000000E+00 -0.00000000000E+00 -0.74505805969E-08  0.93827000000E+00  0.93827000000E+00 0. -1.
     999902    2    1    2    0    0 -0.19313982497E-01 -0.73028529898E-02  0.12714524573E-01  0.10196808615E+01  0.10193924851E+01 0.  0.
     999903    2    3    3    0    0 -0.89128288413E-02 -0.62061139672E-01 -0.11098321370E+00  0.12928331862E+00  0.21584234420E-01 0.  0.
         14    1    1    2    0    0  0.19313982497E-01  0.73028529898E-02 -0.12714524573E-01  0.24249138475E-01  0.00000000000E+00 0.  1.
     999901    1    3    3    0    0 -0.10401153655E-01  0.54758286683E-01  0.12369773827E+00  0.89039754290E+00  0.88000000000E+00 0.  1.
        -11    1    4    4    0    0 -0.12372380759E-01 -0.52087588620E-01 -0.10283738885E+00  0.11593956339E+00  0.51100000000E-03 0.  1.
         11    1    4    4    0    0  0.34595519182E-02 -0.99735510520E-02 -0.81458248495E-02  0.13343755226E-01  0.51100000000E-03 0. -1.
</event>
<event>
 8    1  0.1093753E+005  0.1043930E+01  0.7957747E-01            NaN
         13   -1    0    0    0    0  0.00000000000E+00  0.00000000000E+00  0.74505805969E-08  0.10566000000E+00  0.10566000000E+00 0.  1.
     999900   -1    0    0    0    0 -0.00000000000E+00 -0.00000000000E+00 -0.74505805969E-08  0.93827000000E+00  0.93827000000E+00 0.  1.
     999902    2    1    2    0    0  0.49715568588E-03  0.21727206146E-02 -0.22828781676E-01  0.10209926690E+01  0.10207349847E+01 0.  0.
     999903    2    3    3    0    0  0.11798100546E+00 -0.31961137171E-01 -0.46064114759E-01  0.13222528895E+00  0.20508350269E-01 0.  0.
         14    1    1    2    0    0 -0.49715568588E-03 -0.21727206146E-02  0.22828781676E-01  0.22937330957E-01  0.00000000000E+00 0.  1.
     999901    1    3    3    0    0 -0.11748384978E+00  0.34133857786E-01  0.23235333083E-01  0.88876738009E+00  0.88000000000E+00 0.  1.
        -11    1    4    4    0    0  0.81263887861E-01 -0.13229876299E-01 -0.35557268234E-01  0.89685169022E-01  0.51100000000E-03 0.  1.
         11    1    4    4    0    0  0.36717117603E-01 -0.18731260872E-01 -0.10506846525E-01  0.42540119932E-01  0.51100000000E-03 0. -1.
</event>
<event>
 8    1  0.1093753E+005  0.1043930E+01  0.7957747E-01            NaN
         13   -1    0    0    0    0  0.00000000000E+00  0.00000000000E+00  0.74505805969E-08  0.10566000000E+00  0.10566000000E+00 0. -1.
     999900   -1    0    0    0    0 -0.00000000000E+00 -0.00000000000E+00 -0.74505805969E-08  0.93827000000E+00  0.93827000000E+00 0. -1.
     999902    2    1    2    0    0 -0.14888577698E-01  0.12354772948E-01  0.15714663741E-01  0.10190048958E+01  0.10187000132E+01 0.  0.
     999903    2    3    3    0    0  0.12457737596E+00 -0.13943801924E-01  0.12751080192E-01  0.12762890891E+00  0.20312462417E-01 0.  0.
         14    1    1    2    0    0  0.14888577698E-01 -0.12354772948E-01 -0.15714663741E-01  0.24925104152E-01  0.00000000000E+00 0. -1.
     999901    1    3    3    0    0 -0.13946595366E+00  0.26298574872E-01  0.29635835495E-02  0.89137598694E+00  0.88000000000E+00 0.  1.
        -11    1    4    4    0    0  0.31163511373E-01  0.52953141596E-02  0.30879272628E-02  0.31764779378E-01  0.51100000000E-03 0. -1.
         11    1    4    4    0    0  0.93413864586E-01 -0.19239116083E-01  0.96631529290E-02  0.95864129528E-01  0.51100000000E-03 0.  1.
</event>
<event>
 8    1  0.1093753E+005  0.1043930E+01  0.7957747E-01            NaN
         13   -1    0    0    0    0  0.00000000000E+00  0.00000000000E+00  0.74505805969E-08  0.10566000000E+00  0.10566000000E+00 0. -1.
     999900   -1    0    0    0    0 -0.00000000000E+00 -0.00000000000E+00 -0.74505805969E-08  0.93827000000E+00  0.93827000000E+00 0.  1.
     999902    2    1    2    0    0  0.10787330754E-01  0.17515006368E-01 -0.11939120563E-01  0.10201458760E+01  0.10198685817E+01 0.  0.
     999903    2    3    3    0    0 -0.90840389906E-01 -0.78888107333E-01  0.37921412091E-01  0.12767300437E+00  0.19673653302E-01 0.  0.
         14    1    1    2    0    0 -0.10787330754E-01 -0.17515006368E-01  0.11939120563E-01  0.23784123963E-01  0.00000000000E+00 0. -1.
     999901    1    3    3    0    0  0.10162772066E+00  0.96403113700E-01 -0.49860532654E-01  0.89247287166E+00  0.88000000000E+00 0. -1.
        -11    1    4    4    0    0 -0.69652809037E-01 -0.69775324038E-01  0.27478041869E-01  0.10234946779E+00  0.51100000000E-03 0.  1.
         11    1    4    4    0    0 -0.21187580869E-01 -0.91127832948E-02  0.10443370222E-01  0.25323536582E-01  0.51100000000E-03 0. -1.
</event>
<event>
 8    1  0.1093753E+005  0.1043930E+01  0.7957747E-01            NaN
         13   -1    0    0    0    0  0.00000000000E+00  0.00000000000E+00  0.74505805969E-08  0.10566000000E+00  0.10566000000E+00 0. -1.
     999900   -1    0    0    0    0 -0.00000000000E+00 -0.00000000000E+00 -0.74505805969E-08  0.93827000000E+00  0.93827000000E+00 0. -1.
     999902    2    1    2    0    0 -0.25271538376E-02 -0.55552856898E-02  0.22463674233E-01  0.10206520197E+01  0.10203865351E+01 0.  0.
     999903    2    3    3    0    0  0.52136881110E-01  0.11460550808E+00 -0.27838842059E-01  0.12938487895E+00  0.10619271226E-01 0.  0.
         14    1    1    2    0    0  0.25271538376E-02  0.55552856898E-02 -0.22463674233E-01  0.23277980275E-01  0.00000000000E+00 0.  1.
     999901    1    3    3    0    0 -0.54664034948E-01 -0.12016079377E+00  0.50302516293E-01  0.89126714077E+00  0.88000000000E+00 0.  1.
        -11    1    4    4    0    0  0.12269642376E-01  0.31486450960E-01 -0.11899117495E-01  0.35830027020E-01  0.51100000000E-03 0. -1.
         11    1    4    4    0    0  0.39867238734E-01  0.83119057115E-01 -0.15939724564E-01  0.93554851933E-01  0.51100000000E-03 0.  1.
</event>
<event>
 8    1  0.1093753E+005  0.1043930E+01  0.7957747E-01            NaN
         13   -1    0    0    0    0  0.00000000000E+00  0.00000000000E+00  0.74505805969E-08  0.10566000000E+00  0.10566000000E+00 0. -1.
     999900   -1    0    0    0    0 -0.00000000000E+00 -0.00000000000E+00 -0.74505805969E-08  0.93827000000E+00  0.93827000000E+00 0.  1.
     999902    2    1    2    0    0  0.62723679076E-02  0.14023843114E-01 -0.20925811764E-01  0.10179704088E+01  0.10176393531E+01 0.  0.
     999903    2    3    3    0    0 -0.14488031150E-01 -0.32626050673E-01  0.11852900440E+00  0.12552721597E+00  0.20822940130E-01 0.  0.
         14    1    1    2    0    0 -0.62723679076E-02 -0.14023843114E-01  0.20925811764E-01  0.25959591153E-01  0.00000000000E+00 0. -1.
     999901    1    3    3    0    0  0.20760399058E-01  0.46649893787E-01 -0.13945481617E+00  0.89244319288E+00  0.88000000000E+00 0.  1.
        -11    1    4    4    0    0 -0.13074735518E-01 -0.32438238236E-01  0.84350163146E-01  0.91314835336E-01  0.51100000000E-03 0.  1.
         11    1    4    4    0    0 -0.14132956325E-02 -0.18781243682E-03  0.34178841256E-01  0.34212380635E-01  0.51100000000E-03 0. -1.
</event>
<event>
 8    1  0.1093753E+005  0.1043930E+01  0.7957747E-01            NaN
         13   -1    0    0    0    0  0.00000000000E+00  0.00000000000E+00  0.74505805969E-08  0.10566000000E+00  0.10566000000E+00 0. -1.
     999900   -1    0    0    0    0 -0.00000000000E+00 -0.00000000000E+00 -0.74505805969E-08  0.93827000000E+00  0.93827000000E+00 0.  1.
     999902    2    1    2    0    0  0.14884007411E-01  0.17370136559E-01 -0.44100774270E-02  0.10206339895E+01  0.10203680887E+01 0.  0.
     999903    2    3    3    0    0  0.66596214837E-01  0.85368626141E-02  0.11127129041E+00  0.13151399876E+00  0.20166753483E-01 0.  0.
         14    1    1    2    0    0 -0.14884007411E-01 -0.17370136559E-01  0.44100774270E-02  0.23296010466E-01  0.00000000000E+00 0. -1.
     999901    1    3    3    0    0 -0.51712207425E-01  0.88332739451E-02 -0.11568136784E+00  0.88911999077E+00  0.88000000000E+00 0.  1.
        -11    1    4    4    0    0  0.34020477938E-01  0.12692989111E-01  0.69105213032E-01  0.78065975181E-01  0.51100000000E-03 0. -1.
         11    1    4    4    0    0  0.32575736898E-01 -0.41561264969E-02  0.42166077382E-01  0.53448023581E-01  0.51100000000E-03 0.  1.
</event>
<event>
 8    1  0.1093753E+005  0.1043930E+01  0.7957747E-01            NaN
         13   -1    0    0    0    0  0.00000000000E+00  0.00000000000E+00  0.74505805969E-08  0.10566000000E+00  0.10566000000E+00 0. -1.
     999900   -1    0    0    0    0 -0.00000000000E+00 -0.00000000000E+00 -0.74505805969E-08  0.93827000000E+00  0.93827000000E+00 0. -1.
     999902    2    1    2    0    0 -0.91918524859E-02 -0.23243783472E-01 -0.16783510949E-02  0.10188784435E+01  0.10185704208E+01 0.  0.
     999903    2    3    3    0    0  0.12444043402E+00 -0.35332272411E-02  0.23430221890E-01  0.12821771431E+00  0.19821746917E-01 0.  0.
         14    1    1    2    0    0  0.91918524859E-02  0.23243783472E-01  0.16783510949E-02  0.25051556531E-01  0.00000000000E+00 0.  1.
     999901    1    3    3    0    0 -0.13363228651E+00 -0.19710556231E-01 -0.25108572985E-01  0.89066072916E+00  0.88000000000E+00 0. -1.
        -11    1    4    4    0    0  0.36269679132E-01 -0.10066061316E-01  0.71994315229E-02  0.38326337550E-01  0.51100000000E-03 0.  1.
         11    1    4    4    0    0  0.88170754892E-01  0.65328340747E-02  0.16230790367E-01  0.89891376763E-01  0.51100000000E-03 0. -1.
</event>
<event>
 8    1  0.1093753E+005  0.1043930E+01  0.7957747E-01            NaN
         13   -1    0    0    0    0  0.00000000000E+00  0.00000000000E+00  0.74505805969E-08  0.10566000000E+00  0.10566000000E+00 0. -1.
     999900   -1    0    0    0    0 -0.00000000000E+00 -0.00000000000E+00 -0.74505805969E-08  0.93827000000E+00  0.93827000000E+00 0. -1.
     999902    2    1    2    0    0 -0.21013652559E-01  0.26418145812E-02 -0.11005281298E-01  0.10200622604E+01  0.10197829897E+01 0.  0.
     999903    2    3    3    0    0  0.10768115062E+00 -0.64073929680E-01  0.14586689468E-01  0.12783566816E+00  0.20699948775E-01 0.  0.
         14    1    1    2    0    0  0.21013652559E-01 -0.26418145812E-02  0.11005281298E-01  0.23867739621E-01  0.00000000000E+00 0.  1.
     999901    1    3    3    0    0 -0.12869480318E+00  0.66715744262E-01 -0.25591970766E-01  0.89222659222E+00  0.88000000000E+00 0. -1.
        -11    1    4    4    0    0  0.75188851424E-01 -0.33863144748E-01  0.63567173660E-02  0.82708795949E-01  0.51100000000E-03 0.  1.
         11    1    4    4    0    0  0.32492299200E-01 -0.30210784932E-01  0.82299721018E-02  0.45126872209E-01  0.51100000000E-03 0. -1.
</event>
<event>
 8    1  0.1093753E+005  0.1043930E+01  0.7957747E-01            NaN
         13   -1    0    0    0    0  0.00000000000E+00  0.00000000000E+00  0.74505805969E-08  0.10566000000E+00  0.10566000000E+00 0.  1.
     999900   -1    0    0    0    0 -0.00000000000E+00 -0.00000000000E+00 -0.74505805969E-08  0.93827000000E+00  0.93827000000E+00 0. -1.
     999902    2    1    2    0    0 -0.17936393267E-01 -0.13396198482E-01 -0.68760409964E-02  0.10205109420E+01  0.10202421921E+01 0.  0.
     999903    2    3    3    0    0  0.34887450452E-01  0.84335698153E-01 -0.89900993865E-01  0.12964898588E+00  0.19925527856E-01 0.  0.
         14    1    1    2    0    0  0.17936393267E-01  0.13396198482E-01  0.68760409964E-02  0.23419057986E-01  0.00000000000E+00 0. -1.
     999901    1    3    3    0    0 -0.52823843718E-01 -0.97731896634E-01  0.83024952868E-01  0.89086195613E+00  0.88000000000E+00 0.  1.
        -11    1    4    4    0    0  0.11155296559E-01  0.87672974508E-02 -0.12981835032E-01  0.19237861308E-01  0.51100000000E-03 0. -1.
         11    1    4    4    0    0  0.23732153892E-01  0.75568400702E-01 -0.76919158833E-01  0.11041112457E+00  0.51100000000E-03 0.  1.
</event>
<event>
 8    1  0.1093753E+005  0.1043930E+01  0.7957747E-01            NaN
         13   -1    0    0    0    0  0.00000000000E+00  0.00000000000E+00  0.74505805969E-08  0.10566000000E+00  0.10566000000E+00 0. -1.
     999900   -1    0    0    0    0 -0.00000000000E+00 -0.00000000000E+00 -0.74505805969E-08  0.93827000000E+00  0.93827000000E+00 0. -1.
     999902    2    1    2    0    0  0.22461435958E-01 -0.32671168253E-02 -0.70934817720E-02  0.10201495954E+01  0.10198723888E+01 0.  0.
     999903    2    3    3    0    0  0.39715609687E-01 -0.10318299288E-01 -0.12410430216E+00  0.13220874280E+00  0.19836252319E-01 0.  0.
         14    1    1    2    0    0 -0.22461435958E-01  0.32671168253E-02  0.70934817720E-02  0.23780404566E-01  0.00000000000E+00 0. -1.
     999901    1    3    3    0    0 -0.17254173729E-01  0.70511824629E-02  0.11701082039E+00  0.88794085263E+00  0.88000000000E+00 0.  1.
        -11    1    4    4    0    0  0.30960855470E-01 -0.25735056058E-02 -0.66134549392E-01  0.73070084486E-01  0.51100000000E-03 0.  1.
         11    1    4    4    0    0  0.87547542168E-02 -0.77447936824E-02 -0.57969752767E-01  0.59138658317E-01  0.51100000000E-03 0. -1.
</event>
<event>
 8    1  0.1093753E+005  0.1043930E+01  0.7957747E-01            NaN
         13   -1    0    0    0    0  0.00000000000E+00  0.00000000000E+00  0.74505805969E-08  0.10566000000E+00  0.10566000000E+00 0. -1.
     999900   -1    0    0    0    0 -0.00000000000E+00 -0.00000000000E+00 -0.74505805969E-08  0.93827000000E+00  0.93827000000E+00 0. -1.
     999902    2    1    2    0    0  0.19538265392E-01 -0.10253842382E-01 -0.65255258220E-02  0.10209198373E+01  0.10206604953E+01 0.  0.
     999903    2    3    3    0    0 -0.60404776332E-01  0.70226813256E-01 -0.88767098880E-01  0.12983527223E+00  0.19926308413E-01 0.  0.
         14    1    1    2    0    0 -0.19538265392E-01  0.10253842382E-01  0.65255258220E-02  0.23010162655E-01  0.00000000000E+00 0.  1.
     999901    1    3    3    0    0  0.79943041725E-01 -0.80480655638E-01  0.82241573058E-01  0.89108456512E+00  0.88000000000E+00 0.  1.
        -11    1    4    4    0    0 -0.42097475353E-01  0.34171491473E-01 -0.48083547308E-01  0.72471904234E-01  0.51100000000E-03 0.  1.
         11    1    4    4    0    0 -0.18307300979E-01  0.36055321783E-01 -0.40683551572E-01  0.57363367993E-01  0.51100000000E-03 0. -1.
</event>
<event>
 8    1  0.1093753E+005  0.1043930E+01  0.7957747E-01            NaN
         13   -1    0    0    0    0  0.00000000000E+00  0.00000000000E+00  0.74505805969E-08  0.10566000000E+00  0.10566000000E+00 0.  1.
     999900   -1    0    0    0    0 -0.00000000000E+00 -0.00000000000E+00 -0.74505805969E-08  0.93827000000E+00  0.93827000000E+00 0.  1.
     999902    2    1    2    0    0  0.24191526979E-01  0.24910546560E-02  0.17447385415E-03  0.10196099307E+01  0.10193198443E+01 0.  0.
     999903    2    3    3    0    0  0.62372062241E-01 -0.45100269912E-01  0.10432984744E+00  0.13136951880E+00  0.21187848085E-01 0.  0.
         14    1    1    2    0    0 -0.24191526979E-01 -0.24910546560E-02 -0.17447385415E-03  0.24320069326E-01  0.00000000000E+00 0.  1.
     999901    1    3    3    0    0 -0.38180535261E-01  0.47591324568E-01 -0.10415537359E+00  0.88824041188E+00  0.88000000000E+00 0.  1.
        -11    1    4    4    0    0  0.36617280629E-01 -0.33147609118E-01  0.51300220879E-01  0.71214907246E-01  0.51100000000E-03 0.  1.
         11    1    4    4    0    0  0.25754781612E-01 -0.11952660794E-01  0.53029626565E-01  0.60154611549E-01  0.51100000000E-03 0. -1.
</event>
<event>
 8    1  0.1093753E+005  0.1043930E+01  0.7957747E-01            NaN
         13   -1    0    0    0    0  0.00000000000E+00  0.00000000000E+00  0.74505805969E-08  0.10566000000E+00  0.10566000000E+00 0.  1.
     999900   -1    0    0    0    0 -0.00000000000E+00 -0.00000000000E+00 -0.74505805969E-08  0.93827000000E+00  0.93827000000E+00 0. -1.
     999902    2    1    2    0    0  0.14506301837E-01  0.17227140793E-01 -0.70543239022E-02  0.10203297742E+01  0.10200568011E+01 0.  0.
     999903    2    3    3    0    0 -0.60626822274E-01  0.93369199154E-01 -0.68139305144E-01  0.13175002294E+00  0.17935571052E-01 0.  0.
         14    1    1    2    0    0 -0.14506301837E-01 -0.17227140793E-01  0.70543239022E-02  0.23600225817E-01  0.00000000000E+00 0.  1.
     999901    1    3    3    0    0  0.75133124111E-01 -0.76142058361E-01  0.61084981242E-01  0.88857975125E+00  0.88000000000E+00 0.  1.
        -11    1    4    4    0    0 -0.30625878366E-01  0.41317283798E-01 -0.21742182975E-01  0.55839466398E-01  0.51100000000E-03 0. -1.
         11    1    4    4    0    0 -0.30000943908E-01  0.52051915356E-01 -0.46397122169E-01  0.75910556540E-01  0.51100000000E-03 0.  1.
</event>
<event>
 8    1  0.1093753E+005  0.1043930E+01  0.7957747E-01            NaN
         13   -1    0    0    0    0  0.00000000000E+00  0.00000000000E+00  0.74505805969E-08  0.10566000000E+00  0.10566000000E+00 0.  1.
     999900   -1    0    0    0    0 -0.00000000000E+00 -0.00000000000E+00 -0.74505805969E-08  0.93827000000E+00  0.93827000000E+00 0. -1.
     999902    2    1    2    0    0  0.17008070274E-01 -0.91890405134E-02  0.17606769575E-01  0.10177821271E+01  0.10174461888E+01 0.  0.
     999903    2    3    3    0    0 -0.11724900198E+00  0.23214938469E-01 -0.33589467168E-01  0.12553998851E+00  0.18595014794E-01 0.  0.
         14    1    1    2    0    0 -0.17008070274E-01  0.91890405134E-02 -0.17606769575E-01  0.26147872856E-01  0.00000000000E+00 0. -1.
     999901    1    3    3    0    0  0.13425707226E+00 -0.32403978982E-01  0.51196236743E-01  0.89224213864E+00  0.88000000000E+00 0. -1.
        -11    1    4    4    0    0 -0.77098642751E-01  0.22226530723E-01 -0.28010353855E-01  0.84988589976E-01  0.51100000000E-03 0.  1.
         11    1    4    4    0    0 -0.40150359233E-01  0.98840774587E-03 -0.55791133132E-02  0.40551398530E-01  0.51100000000E-03 0. -1.
</event>
<event>
 8    1  0.1093753E+005  0.1043930E+01  0.7957747E-01            NaN
         13   -1    0    0    0    0  0.00000000000E+00  0.00000000000E+00  0.74505805969E-08  0.10566000000E+00  0.10566000000E+00 0. -1.
     999900   -1    0    0    0    0 -0.00000000000E+00 -0.00000000000E+00 -0.74505805969E-08  0.93827000000E+00  0.93827000000E+00 0.  1.
     999902    2    1    2    0    0 -0.13606909189E-01 -0.87767928260E-02  0.17767746480E-01  0.10198910132E+01  0.10196076726E+01 0.  0.
     999903    2    3    3    0    0  0.10891268907E+00 -0.87009650907E-02  0.67552207421E-01  0.13000925128E+00  0.20035569789E-01 0.  0.
         14    1    1    2    0    0  0.13606909189E-01  0.87767928260E-02 -0.17767746480E-01  0.24038986771E-01  0.00000000000E+00 0.  1.
     999901    1    3    3    0    0 -0.12251959826E+00 -0.75827735247E-04 -0.49784460941E-01  0.88988176195E+00  0.88000000000E+00 0.  1.
        -11    1    4    4    0    0  0.93276346578E-01 -0.50274875213E-03  0.59128104200E-01  0.11044058771E+00  0.51100000000E-03 0.  1.
         11    1    4    4    0    0  0.15636342488E-01 -0.81982163386E-02  0.84241032212E-02  0.19568663563E-01  0.51100000000E-03 0. -1.
</event>
<event>
 8    1  0.1093753E+005  0.1043930E+01  0.7957747E-01            NaN
         13   -1    0    0    0    0  0.00000000000E+00  0.00000000000E+00  0.74505805969E-08  0.10566000000E+00  0.10566000000E+00 0.  1.
     999900   -1    0    0    0    0 -0.00000000000E+00 -0.00000000000E+00 -0.74505805969E-08  0.93827000000E+00  0.93827000000E+00 0.  1.
     999902    2    1    2    0    0 -0.96392676443E-02  0.74530440309E-02 -0.20469063491E-01  0.10201088769E+01  0.10198307089E+01 0.  0.
     999903    2    3    3    0    0  0.89716327590E-01 -0.74152723279E-01  0.49599796725E-01  0.12800984610E+00  0.19461116555E-01 0.  0.
         14    1    1    2    0    0  0.96392676443E-02 -0.74530440309E-02  0.20469063491E-01  0.23821123111E-01  0.00000000000E+00 0.  1.
     999901    1    3    3    0    0 -0.99355595234E-01  0.81605767310E-01 -0.70068860216E-01  0.89209903079E+00  0.88000000000E+00 0.  1.
        -11    1    4    4    0    0  0.79699181947E-02 -0.14448482144E-01  0.40123405718E-02  0.16989356379E-01  0.51100000000E-03 0. -1.
         11    1    4    4    0    0  0.81746409395E-01 -0.59704241135E-01  0.45587456153E-01  0.11102048972E+00  0.51100000000E-03 0.  1.
</event>
<event>
 8    1  0.1093753E+005  0.1043930E+01  0.7957747E-01            NaN
         13   -1    0    0    0    0  0.00000000000E+00  0.00000000000E+00  0.74505805969E-08  0.10566000000E+00  0.10566000000E+00 0.  1.
     999900   -1    0    0    0    0 -0.00000000000E+00 -0.00000000000E+00 -0.74505805969E-08  0.93827000000E+00  0.93827000000E+00 0.  1.
     999902    2    1    2    0    0  0.22436968021E-01 -0.15707963812E-02 -0.70602855268E-02  0.10203560193E+01  0.10200836601E+01 0.  0.
     999903    2    3    3    0    0  0.61373706118E-01 -0.77240331841E-01  0.84246892707E-01  0.13154841976E+00  0.21786398156E-01 0.  0.
         14    1    1    2    0    0 -0.22436968021E-01  0.15707963812E-02  0.70602855268E-02  0.23573980720E-01  0.00000000000E+00 0.  1.
     999901    1    3    3    0    0 -0.38936738097E-01  0.75669535460E-01 -0.91307178234E-01  0.88880759952E+00  0.88000000000E+00 0.  1.
        -11    1    4    4    0    0  0.20523384134E-02 -0.82052028805E-02  0.14816183616E-01  0.17068036361E-01  0.51100000000E-03 0. -1.
         11    1    4    4    0    0  0.59321367705E-01 -0.69035128961E-01  0.69430709090E-01  0.11448038340E+00  0.51100000000E-03 0.  1.
</event>
<event>
 8    1  0.1093753E+005  0.1043930E+01  0.7957747E-01            NaN
         13   -1    0    0    0    0  0.00000000000E+00  0.00000000000E+00  0.74505805969E-08  0.10566000000E+00  0.10566000000E+00 0.  1.
     999900   -1    0    0    0    0 -0.00000000000E+00 -0.00000000000E+00 -0.74505805969E-08  0.93827000000E+00  0.93827000000E+00 0.  1.
     999902    2    1    2    0    0 -0.14260798655E-01 -0.17038428936E-01  0.56626024137E-02  0.10210009027E+01  0.10207434054E+01 0.  0.
     999903    2    3    3    0    0 -0.95737148329E-01  0.84592040735E-01  0.27936678282E-01  0.13113390002E+00  0.97070497918E-02 0.  0.
         14    1    1    2    0    0  0.14260798655E-01  0.17038428936E-01 -0.56626024137E-02  0.22929097344E-01  0.00000000000E+00 0. -1.
     999901    1    3    3    0    0  0.81476349674E-01 -0.10163046967E+00 -0.22274075868E-01  0.88986700263E+00  0.88000000000E+00 0. -1.
        -11    1    4    4    0    0 -0.90596348454E-01  0.78034947397E-01  0.24238891970E-01  0.12200383754E+00  0.51100000000E-03 0.  1.
         11    1    4    4    0    0 -0.51407998752E-02  0.65570933384E-02  0.36977863121E-02  0.91300624869E-02  0.51100000000E-03 0. -1.
</event>
<event>
 8    1  0.1093753E+005  0.1043930E+01  0.7957747E-01            NaN
         13   -1    0    0    0    0  0.00000000000E+00  0.00000000000E+00  0.74505805969E-08  0.10566000000E+00  0.10566000000E+00 0.  1.
     999900   -1    0    0    0    0 -0.00000000000E+00 -0.00000000000E+00 -0.74505805969E-08  0.93827000000E+00  0.93827000000E+00 0.  1.
     999902    2    1    2    0    0  0.16663111151E-01  0.17032204171E-01  0.50237712604E-03  0.10200970892E+01  0.10198186426E+01 0.  0.
     999903    2    3    3    0    0  0.52043671267E-01 -0.11370689739E+00  0.26494890234E-01  0.12935576459E+00  0.19827566481E-01 0.  0.
         14    1    1    2    0    0 -0.16663111151E-01 -0.17032204171E-01 -0.50237712604E-03  0.23832910753E-01  0.00000000000E+00 0.  1.
     999901    1    3    3    0    0 -0.35380560116E-01  0.13073910156E+00 -0.25992513108E-01  0.89074132465E+00  0.88000000000E+00 0.  1.
        -11    1    4    4    0    0  0.35128070904E-01 -0.56966320815E-01  0.84686327311E-02  0.67462003631E-01  0.51100000000E-03 0.  1.
         11    1    4    4    0    0  0.16915600363E-01 -0.56740576572E-01  0.18026257503E-01  0.61893760961E-01  0.51100000000E-03 0. -1.
</event>
<event>
 8    1  0.1093753E+005  0.1043930E+01  0.7957747E-01            NaN
         13   -1    0    0    0    0  0.00000000000E+00  0.00000000000E+00  0.74505805969E-08  0.10566000000E+00  0.10566000000E+00 0.  1.
     999900   -1    0    0    0    0 -0.00000000000E+00 -0.00000000000E+00 -0.74505805969E-08  0.93827000000E+00  0.93827000000E+00 0. -1.
     999902    2    1    2    0    0  0.22403877590E-01  0.85443016538E-02 -0.23586190745E-01  0.10102959813E+01  0.10097359668E+01 0.  0.
     999903    2    3    3    0    0 -0.11252502234E-02 -0.89908972313E-01 -0.81002798109E-01  0.12263425865E+00  0.19819651932E-01 0.  0.
         14    1    1    2    0    0 -0.22403877590E-01 -0.85443016538E-02  0.23586190745E-01  0.33634018726E-01  0.00000000000E+00 0.  1.
     999901    1    3    3    0    0  0.23529127814E-01  0.98453273966E-01  0.57416607365E-01  0.88766172262E+00  0.88000000000E+00 0.  1.
        -11    1    4    4    0    0  0.14902662302E-02 -0.26023784053E-01 -0.12453741394E-01  0.28893165725E-01  0.51100000000E-03 0. -1.
         11    1    4    4    0    0 -0.26155164536E-02 -0.63885188259E-01 -0.68549056715E-01  0.93741092925E-01  0.51100000000E-03 0.  1.
</event>
<event>
 8    1  0.1093753E+005  0.1043930E+01  0.7957747E-01            NaN
         13   -1    0    0    0    0  0.00000000000E+00  0.00000000000E+00  0.74505805969E-08  0.10566000000E+00  0.10566000000E+00 0.  1.
     999900   -1    0    0    0    0 -0.00000000000E+00 -0.00000000000E+00 -0.74505805969E-08  0.93827000000E+00  0.93827000000E+00 0. -1.
     999902    2    1    2    0    0 -0.60807396374E-02  0.18842515381E-01  0.12228126005E-01  0.10206589268E+01  0.10203936016E+01 0.  0.
     999903    2    3    3    0    0  0.14487195405E-01 -0.69276421090E-01  0.10823467482E+00  0.13082453532E+00  0.19779101572E-01 0.  0.
         14    1    1    2    0    0  0.60807396374E-02 -0.18842515381E-01 -0.12228126005E-01  0.23271073160E-01  0.00000000000E+00 0. -1.
     999901    1    3    3    0    0 -0.20567935042E-01  0.88118936471E-01 -0.96006548813E-01  0.88983439152E+00  0.88000000000E+00 0. -1.
        -11    1    4    4    0    0  0.10356692686E-01 -0.32633584856E-01  0.68695353144E-01  0.76756267552E-01  0.51100000000E-03 0.  1.
         11    1    4    4    0    0  0.41305027191E-02 -0.36642836234E-01  0.39539321674E-01  0.54068267768E-01  0.51100000000E-03 0. -1.
</event>
<event>
 8    1  0.1093753E+005  0.1043930E+01  0.7957747E-01            NaN
         13   -1    0    0    0    0  0.00000000000E+00  0.00000000000E+00  0.74505805969E-08  0.10566000000E+00  0.10566000000E+00 0.  1.
     999900   -1    0    0    0    0 -0.00000000000E+00 -0.00000000000E+00 -0.74505805969E-08  0.93827000000E+00  0.93827000000E+00 0.  1.
     999902    2    1    2    0    0  0.14131609860E-01 -0.58440774668E-02  0.17984393567E-01  0.10203229237E+01  0.10200497903E+01 0.  0.
     999903    2    3    3    0    0  0.83015011351E-01 -0.44121292434E-01 -0.88213226734E-01  0.13044203127E+00  0.19883902915E-01 0.  0.
         14    1    1    2    0    0 -0.14131609860E-01  0.58440774668E-02 -0.17984393567E-01  0.23607076283E-01  0.00000000000E+00 0. -1.
     999901    1    3    3    0    0 -0.68883401491E-01  0.38277214967E-01  0.10619762030E+00  0.88988089245E+00  0.88000000000E+00 0. -1.
        -11    1    4    4    0    0  0.78161847845E-01 -0.45963377782E-01 -0.81333515641E-01  0.12180849085E+00  0.51100000000E-03 0.  1.
         11    1    4    4    0    0  0.48531635059E-02  0.18420853477E-02 -0.68797110929E-02  0.86335404189E-02  0.51100000000E-03 0. -1.
</event>
<event>
 8    1  0.1093753E+005  0.1043930E+01  0.7957747E-01            NaN
         13   -1    0    0    0    0  0.00000000000E+00  0.00000000000E+00  0.74505805969E-08  0.10566000000E+00  0.10566000000E+00 0. -1.
     999900   -1    0    0    0    0 -0.00000000000E+00 -0.00000000000E+00 -0.74505805969E-08  0.93827000000E+00  0.93827000000E+00 0. -1.
     999902    2    1    2    0    0 -0.12199438172E-01 -0.36477647510E-02  0.20825197007E-01  0.10195205488E+01  0.10192283003E+01 0.  0.
     999903    2    3    3    0    0 -0.11745116939E+00 -0.47889564578E-01  0.31105959947E-01  0.13208550446E+00  0.19768969562E-01 0.  0.
         14    1    1    2    0    0  0.12199438172E-01  0.36477647510E-02 -0.20825197007E-01  0.24409451239E-01  0.00000000000E+00 0.  1.
     999901    1    3    3    0    0  0.10525173121E+00  0.44241799827E-01 -0.10280762940E-01  0.88743504431E+00  0.88000000000E+00 0.  1.
        -11    1    4    4    0    0 -0.52652835711E-01 -0.24926724523E-01  0.47238229198E-02  0.58448595602E-01  0.51100000000E-03 0. -1.
         11    1    4    4    0    0 -0.64798333674E-01 -0.22962840055E-01  0.26382137027E-01  0.73636908853E-01  0.51100000000E-03 0.  1.
</event>
<event>
 8    1  0.1093753E+005  0.1043930E+01  0.7957747E-01            NaN
         13   -1    0    0    0    0  0.00000000000E+00  0.00000000000E+00  0.74505805969E-08  0.10566000000E+00  0.10566000000E+00 0. -1.
     999900   -1    0    0    0    0 -0.00000000000E+00 -0.00000000000E+00 -0.74505805969E-08  0.93827000000E+00  0.93827000000E+00 0.  1.
     999902    2    1    2    0    0 -0.20475093995E-01 -0.95796764075E-02 -0.69844415297E-02  0.10202702853E+01  0.10199959182E+01 0.  0.
     999903    2    3    3    0    0 -0.76031734327E-01 -0.99573265250E-01  0.39082211182E-01  0.13274139972E+00  0.19929881894E-01 0.  0.
         14    1    1    2    0    0  0.20475093995E-01  0.95796764075E-02  0.69844415297E-02  0.23659714657E-01  0.00000000000E+00 0. -1.
     999901    1    3    3    0    0  0.55556640333E-01  0.89993588842E-01 -0.46066652711E-01  0.88752888562E+00  0.88000000000E+00 0. -1.
        -11    1    4    4    0    0 -0.47955928857E-01 -0.62058065761E-01  0.14270216514E-01  0.79717468844E-01  0.51100000000E-03 0.  1.
         11    1    4    4    0    0 -0.28075805470E-01 -0.37515199489E-01  0.24811994668E-01  0.53023930879E-01  0.51100000000E-03 0. -1.
</event>
<event>
 8    1  0.1093753E+005  0.1043930E+01  0.7957747E-01            NaN
         13   -1    0    0    0    0  0.00000000000E+00  0.00000000000E+00  0.74505805969E-08  0.10566000000E+00  0.10566000000E+00 0. -1.
     999900   -1    0    0    0    0 -0.00000000000E+00 -0.00000000000E+00 -0.74505805969E-08  0.93827000000E+00  0.93827000000E+00 0.  1.
     999902    2    1    2    0    0  0.14902111471E-02  0.12634212644E-01 -0.18092768818E-01  0.10218123070E+01  0.10215729041E+01 0.  0.
     999903    2    3    3    0    0  0.15087744467E-01  0.25265189697E-01 -0.12970791472E+00  0.13456804795E+00  0.20455965990E-01 0.  0.
         14    1    1    2    0    0 -0.14902111471E-02 -0.12634212644E-01  0.18092768818E-01  0.22117692961E-01  0.00000000000E+00 0. -1.
     999901    1    3    3    0    0 -0.13597533320E-01 -0.12630977052E-01  0.11161514590E+00  0.88724425909E+00  0.88000000000E+00 0. -1.
        -11    1    4    4    0    0  0.54709196765E-02 -0.79163673866E-03 -0.46840486784E-01  0.47168315361E-01  0.51100000000E-03 0. -1.
         11    1    4    4    0    0  0.96168247907E-02  0.26056826435E-01 -0.82867427935E-01  0.87399732588E-01  0.51100000000E-03 0.  1.
</event>
<event>
 8    1  0.1093753E+005  0.1043930E+01  0.7957747E-01            NaN
         13   -1    0    0    0    0  0.00000000000E+00  0.00000000000E+00  0.74505805969E-08  0.10566000000E+00  0.10566000000E+00 0.  1.
     999900   -1    0    0    0    0 -0.00000000000E+00 -0.00000000000E+00 -0.74505805969E-08  0.93827000000E+00  0.93827000000E+00 0.  1.
     999902    2    1    2    0    0 -0.12368219469E-01  0.16798523936E-01  0.13527783108E-01  0.10190670924E+01  0.10187637482E+01 0.  0.
     999903    2    3    3    0    0  0.31306848294E-02 -0.10595233090E+00 -0.66657705281E-01  0.12680160446E+00  0.19992488799E-01 0.  0.
         14    1    1    2    0    0  0.12368219469E-01 -0.16798523936E-01 -0.13527783108E-01  0.24862907615E-01  0.00000000000E+00 0.  1.
     999901    1    3    3    0    0 -0.15498904298E-01  0.12275085484E+00  0.80185488390E-01  0.89226548793E+00  0.88000000000E+00 0. -1.
        -11    1    4    4    0    0  0.66789958124E-02 -0.77838527874E-01 -0.57543451999E-01  0.97030693060E-01  0.51100000000E-03 0. -1.
         11    1    4    4    0    0 -0.35483109830E-02 -0.28113803029E-01 -0.91142532826E-02  0.29770911398E-01  0.51100000000E-03 0.  1.
</event>
<event>
 8    1  0.1093753E+005  0.1043930E+01  0.7957747E-01            NaN
         13   -1    0    0    0    0  0.00000000000E+00  0.00000000000E+00  0.74505805969E-08  0.10566000000E+00  0.10566000000E+00 0.  1.
     999900   -1    0    0    0    0 -0.00000000000E+00 -0.00000000000E+00 -0.74505805969E-08  0.93827000000E+00  0.93827000000E+00 0.  1.
     999902    2    1    2    0    0  0.31248641122E-02  0.53785471504E-02  0.22219912168E-01  0.10208558144E+01  0.10205950106E+01 0.  0.
     999903    2    3    3    0    0 -0.80111579659E-01 -0.74090404383E-01  0.71341055247E-01  0.13200458581E+00  0.20698098832E-01 0.  0.
         14    1    1    2    0    0 -0.31248641122E-02 -0.53785471504E-02 -0.22219912168E-01  0.23074185617E-01  0.00000000000E+00 0. -1.
     999901    1    3    3    0    0  0.83236443771E-01  0.79468951533E-01 -0.49121143079E-01  0.88885122857E+00  0.88000000000E+00 0. -1.
        -11    1    4    4    0    0 -0.49303560190E-01 -0.58428212917E-01  0.50938361924E-01  0.91867703512E-01  0.51100000000E-03 0. -1.
         11    1    4    4    0    0 -0.30808019470E-01 -0.15662191466E-01  0.20402693323E-01  0.40136882303E-01  0.51100000000E-03 0.  1.
</event>
<event>
 8    1  0.1093753E+005  0.1043930E+01  0.7957747E-01            NaN
         13   -1    0    0    0    0  0.00000000000E+00  0.00000000000E+00  0.74505805969E-08  0.10566000000E+00  0.10566000000E+00 0.  1.
     999900   -1    0    0    0    0 -0.00000000000E+00 -0.00000000000E+00 -0.74505805969E-08  0.93827000000E+00  0.93827000000E+00 0. -1.
     999902    2    1    2    0    0 -0.20121662014E-02 -0.18391283821E-01  0.14560964800E-01  0.10203862146E+01  0.10201145608E+01 0.  0.
     999903    2    3    3    0    0  0.48536282337E-01 -0.11667277170E+00  0.37265212099E-01  0.13318281104E+00  0.19510478336E-01 0.  0.
         14    1    1    2    0    0  0.20121662014E-02  0.18391283821E-01 -0.14560964800E-01  0.23543785365E-01  0.00000000000E+00 0. -1.
     999901    1    3    3    0    0 -0.50548448538E-01  0.98281487874E-01 -0.22704247300E-01  0.88720340360E+00  0.88000000000E+00 0. -1.
        -11    1    4    4    0    0  0.43416065870E-01 -0.96359418445E-01  0.37730360275E-01  0.11222269604E+00  0.51100000000E-03 0.  1.
         11    1    4    4    0    0  0.51202164675E-02 -0.20313353251E-01 -0.46514817593E-03  0.20960115000E-01  0.51100000000E-03 0. -1.
</event>
<event>
 8    1  0.1093753E+005  0.1043930E+01  0.7957747E-01            NaN
         13   -1    0    0    0    0  0.00000000000E+00  0.00000000000E+00  0.74505805969E-08  0.10566000000E+00  0.10566000000E+00 0. -1.
     999900   -1    0    0    0    0 -0.00000000000E+00 -0.00000000000E+00 -0.74505805969E-08  0.93827000000E+00  0.93827000000E+00 0. -1.
     999902    2    1    2    0    0 -0.18770010815E-01 -0.13236142149E-02 -0.13620055658E-01  0.10207013286E+01  0.10204369804E+01 0.  0.
     999903    2    3    3    0    0 -0.11418621883E+00  0.25855808185E-01 -0.61905993979E-01  0.13381097142E+00  0.19131351071E-01 0.  0.
         14    1    1    2    0    0  0.18770010815E-01  0.13236142149E-02  0.13620055658E-01  0.23228671436E-01  0.00000000000E+00 0.  1.
     999901    1    3    3    0    0  0.95416208017E-01 -0.27179422400E-01  0.48285938321E-01  0.88689035714E+00  0.88000000000E+00 0.  1.
        -11    1    4    4    0    0 -0.58285215503E-01  0.20294697573E-01 -0.24981919627E-01  0.66583770733E-01  0.51100000000E-03 0. -1.
         11    1    4    4    0    0 -0.55901003329E-01  0.55611106121E-02 -0.36924074352E-01  0.67227200687E-01  0.51100000000E-03 0.  1.
</event>
<event>
 8    1  0.1093753E+005  0.1043930E+01  0.7957747E-01            NaN
         13   -1    0    0    0    0  0.00000000000E+00  0.00000000000E+00  0.74505805969E-08  0.10566000000E+00  0.10566000000E+00 0.  1.
     999900   -1    0    0    0    0 -0.00000000000E+00 -0.00000000000E+00 -0.74505805969E-08  0.93827000000E+00  0.93827000000E+00 0. -1.
     999902    2    1    2    0    0  0.16857767256E-01  0.14528927304E-01 -0.33856306069E-02  0.10214191906E+01  0.10211711053E+01 0.  0.
     999903    2    3    3    0    0 -0.32228199089E-01  0.74697805833E-01 -0.10256260643E+00  0.13245023806E+00  0.20138478417E-01 0.  0.
         14    1    1    2    0    0 -0.16857767256E-01 -0.14528927304E-01  0.33856306069E-02  0.22510809405E-01  0.00000000000E+00 0. -1.
     999901    1    3    3    0    0  0.49085966345E-01 -0.60168878529E-01  0.99176975820E-01  0.88896895253E+00  0.88000000000E+00 0.  1.
        -11    1    4    4    0    0 -0.22833694812E-01  0.64843304198E-01 -0.75235587365E-01  0.10191509430E+00  0.51100000000E-03 0.  1.
         11    1    4    4    0    0 -0.93945042766E-02  0.98545016352E-02 -0.27327019061E-01  0.30535143767E-01  0.51100000000E-03 0. -1.
</event>
<event>
 8    1  0.1093753E+005  0.1043930E+01  0.7957747E-01            NaN
         13   -1    0    0    0    0  0.00000000000E+00  0.00000000000E+00  0.74505805969E-08  0.10566000000E+00  0.10566000000E+00 0.  1.
     999900   -1    0    0    0    0 -0.00000000000E+00 -0.00000000000E+00 -0.74505805969E-08  0.93827000000E+00  0.93827000000E+00 0. -1.
     999902    2    1    2    0    0 -0.14286606705E-01  0.17540029472E-01  0.77308845256E-03  0.10212946862E+01  0.10210438182E+01 0.  0.
     999903    2    3    3    0    0 -0.96893374877E-01 -0.51459161953E-01  0.70661151791E-01  0.13198646744E+00  0.19775180655E-01 0.  0.
         14    1    1    2    0    0  0.14286606705E-01 -0.17540029472E-01 -0.77308845256E-03  0.22635313799E-01  0.00000000000E+00 0.  1.
     999901    1    3    3    0    0  0.82606768172E-01  0.68999191426E-01 -0.69888063339E-01  0.88930821876E+00  0.88000000000E+00 0. -1.
        -11    1    4    4    0    0 -0.64263068997E-01 -0.25753485110E-01  0.51216968613E-01  0.86118656673E-01  0.51100000000E-03 0.  1.
         11    1    4    4    0    0 -0.32630305879E-01 -0.25705676844E-01  0.19444183179E-01  0.45867810764E-01  0.51100000000E-03 0. -1.
</event>
<event>
 8    1  0.1093753E+005  0.1043930E+01  0.7957747E-01            NaN
         13   -1    0    0    0    0  0.00000000000E+00  0.00000000000E+00  0.74505805969E-08  0.10566000000E+00  0.10566000000E+00 0. -1.
     999900   -1    0    0    0    0 -0.00000000000E+00 -0.00000000000E+00 -0.74505805969E-08  0.93827000000E+00  0.93827000000E+00 0.  1.
     999902    2    1    2    0    0  0.29850785796E-02  0.18552939602E-01  0.89102947864E-02  0.10231329902E+01  0.10229216002E+01 0.  0.
     999903    2    3    3    0    0  0.70919647266E-01 -0.94656384868E-01 -0.54559314700E-01  0.13102321666E+00  0.14175222044E-01 0.  0.
         14    1    1    2    0    0 -0.29850785796E-02 -0.18552939602E-01 -0.89102947864E-02  0.20797009766E-01  0.00000000000E+00 0.  1.
     999901    1    3    3    0    0 -0.67934568686E-01  0.11320932447E+00  0.63469609487E-01  0.89210977357E+00  0.88000000000E+00 0. -1.
        -11    1    4    4    0    0  0.16777068464E-01 -0.32617830579E-01 -0.14395483137E-01  0.39406648598E-01  0.51100000000E-03 0.  1.
         11    1    4    4    0    0  0.54142578801E-01 -0.62038554289E-01 -0.40163831563E-01  0.91616568067E-01  0.51100000000E-03 0. -1.
</event>
<event>
 8    1  0.1093753E+005  0.1043930E+01  0.7957747E-01            NaN
         13   -1    0    0    0    0  0.00000000000E+00  0.00000000000E+00  0.74505805969E-08  0.10566000000E+00  0.10566000000E+00 0. -1.
     999900   -1    0    0    0    0 -0.00000000000E+00 -0.00000000000E+00 -0.74505805969E-08  0.93827000000E+00  0.93827000000E+00 0. -1.
     999902    2    1    2    0    0 -0.24127884534E-01 -0.48174957135E-02  0.40388598957E-02  0.10189965793E+01  0.10186914907E+01 0.  0.
     999903    2    3    3    0    0  0.10463847062E+00 -0.60598835815E-01  0.34436306280E-01  0.12735969311E+00  0.20327415041E-01 0.  0.
         14    1    1    2    0    0  0.24127884534E-01  0.48174957135E-02 -0.40388598957E-02  0.24933420669E-01  0.00000000000E+00 0. -1.
     999901    1    3    3    0    0 -0.12876635516E+00  0.55781340101E-01 -0.30397446385E-01  0.89163688622E+00  0.88000000000E+00 0.  1.
        -11    1    4    4    0    0  0.69298744066E-01 -0.30741925011E-01  0.27121755582E-01  0.80518523517E-01  0.51100000000E-03 0.  1.
         11    1    4    4    0    0  0.35339726557E-01 -0.29856910804E-01  0.73145506988E-02  0.46841169593E-01  0.51100000000E-03 0. -1.
</event>
<event>
 8    1  0.1093753E+005  0.1043930E+01  0.7957747E-01            NaN
         13   -1    0    0    0    0  0.00000000000E+00  0.00000000000E+00  0.74505805969E-08  0.10566000000E+00  0.10566000000E+00 0. -1.
     999900   -1    0    0    0    0 -0.00000000000E+00 -0.00000000000E+00 -0.74505805969E-08  0.93827000000E+00  0.93827000000E+00 0.  1.
     999902    2    1    2    0    0 -0.91992362810E-02  0.21613016105E-01  0.13031992915E-02  0.10204045512E+01  0.10201333253E+01 0.  0.
     999903    2    3    3    0    0 -0.49917340944E-01 -0.72444546260E-01 -0.92561038229E-01  0.12949755034E+00  0.21496895945E-01 0.  0.
         14    1    1    2    0    0  0.91992362810E-02 -0.21613016105E-01 -0.13031992915E-02  0.23525448810E-01  0.00000000000E+00 0. -1.
     999901    1    3    3    0    0  0.40718104663E-01  0.94057562365E-01  0.93864237520E-01  0.89090700085E+00  0.88000000000E+00 0. -1.
        -11    1    4    4    0    0 -0.11855914432E-01 -0.68216742743E-02 -0.21887426954E-01  0.25815083315E-01  0.51100000000E-03 0.  1.
         11    1    4    4    0    0 -0.38061426512E-01 -0.65622871986E-01 -0.70673611275E-01  0.10368246702E+00  0.51100000000E-03 0. -1.
</event>
<event>
 8    1  0.1093753E+005  0.1043930E+01  0.7957747E-01            NaN
         13   -1    0    0    0    0  0.00000000000E+00  0.00000000000E+00  0.74505805969E-08  0.10566000000E+00  0.10566000000E+00 0.  1.
     999900   -1    0    0    0    0 -0.00000000000E+00 -0.00000000000E+00 -0.74505805969E-08  0.93827000000E+00  0.93827000000E+00 0.  1.
     999902    2    1    2    0    0 -0.64217241844E-02  0.14321755384E-01  0.22429422686E-01  0.10165542768E+01  0.10161855970E+01 0.  0.
     999903    2    3    3    0    0  0.11339867724E+00 -0.49032309897E-01  0.15809668215E-01  0.12615296990E+00  0.20029947330E-01 0.  0.
         14    1    1    2    0    0  0.64217241844E-02 -0.14321755384E-01 -0.22429422686E-01  0.27375723201E-01  0.00000000000E+00 0.  1.
     999901    1    3    3    0    0 -0.11982040143E+00  0.63354065281E-01  0.66197544703E-02  0.89040130690E+00  0.88000000000E+00 0.  1.
        -11    1    4    4    0    0  0.50714567768E-01 -0.20080796534E-01  0.16866696685E-01  0.57095992428E-01  0.51100000000E-03 0.  1.
         11    1    4    4    0    0  0.62684109476E-01 -0.28951513363E-01 -0.10570284694E-02  0.69056977467E-01  0.51100000000E-03 0. -1.
</event>
<event>
 8    1  0.1093753E+005  0.1043930E+01  0.7957747E-01            NaN
         13   -1    0    0    0    0  0.00000000000E+00  0.00000000000E+00  0.74505805969E-08  0.10566000000E+00  0.10566000000E+00 0. -1.
     999900   -1    0    0    0    0 -0.00000000000E+00 -0.00000000000E+00 -0.74505805969E-08  0.93827000000E+00  0.93827000000E+00 0.  1.
     999902    2    1    2    0    0  0.32980324436E-03 -0.18367229479E-01  0.14910243628E-01  0.10202703454E+01  0.10199959797E+01 0.  0.
     999903    2    3    3    0    0 -0.13304184069E-02 -0.95392155704E-01 -0.87652514756E-01  0.13097021893E+00  0.19204205821E-01 0.  0.
         14    1    1    2    0    0 -0.32980324436E-03  0.18367229479E-01 -0.14910243628E-01  0.23659654562E-01  0.00000000000E+00 0.  1.
     999901    1    3    3    0    0  0.16602216512E-02  0.77024926224E-01  0.10256275838E+00  0.88930012651E+00  0.88000000000E+00 0. -1.
        -11    1    4    4    0    0 -0.58503061837E-02 -0.47836216524E-01 -0.54870801367E-01  0.73031470322E-01  0.51100000000E-03 0.  1.
         11    1    4    4    0    0  0.45198877768E-02 -0.47555939180E-01 -0.32781713389E-01  0.57938748610E-01  0.51100000000E-03 0. -1.
</event>
<event>
 8    1  0.1093753E+005  0.1043930E+01  0.7957747E-01            NaN
         13   -1    0    0    0    0  0.00000000000E+00  0.00000000000E+00  0.74505805969E-08  0.10566000000E+00  0.10566000000E+00 0.  1.
     999900   -1    0    0    0    0 -0.00000000000E+00 -0.00000000000E+00 -0.74505805969E-08  0.93827000000E+00  0.93827000000E+00 0.  1.
     999902    2    1    2    0    0 -0.24673297330E-01 -0.33609602076E-03 -0.68252489842E-02  0.10183278793E+01  0.10180059927E+01 0.  0.
     999903    2    3    3    0    0  0.10887963181E+00  0.59023748679E-01  0.12143152118E-01  0.12607243588E+00  0.20204598838E-01 0.  0.
         14    1    1    2    0    0  0.24673297330E-01  0.33609602076E-03  0.68252489842E-02  0.25602120720E-01  0.00000000000E+00 0. -1.
     999901    1    3    3    0    0 -0.13355292914E+00 -0.59359844699E-01 -0.18968401102E-01  0.89225544340E+00  0.88000000000E+00 0.  1.
        -11    1    4    4    0    0  0.47368844305E-01  0.37133897273E-01  0.53704237605E-02  0.60430425366E-01  0.51100000000E-03 0.  1.
         11    1    4    4    0    0  0.61510787501E-01  0.21889851405E-01  0.67727283575E-02  0.65642010511E-01  0.51100000000E-03 0. -1.
</event>
<event>
 8    1  0.1093753E+005  0.1043930E+01  0.7957747E-01            NaN
         13   -1    0    0    0    0  0.00000000000E+00  0.00000000000E+00  0.74505805969E-08  0.10566000000E+00  0.10566000000E+00 0.  1.
     999900   -1    0    0    0    0 -0.00000000000E+00 -0.00000000000E+00 -0.74505805969E-08  0.93827000000E+00  0.93827000000E+00 0.  1.
     999902    2    1    2    0    0 -0.13952750355E-02  0.16952031410E-01 -0.15348498395E-01  0.10210194224E+01  0.10207623457E+01 0.  0.
     999903    2    3    3    0    0 -0.81822136057E-01  0.87335972349E-01  0.51231834990E-01  0.13205636364E+00  0.22175397302E-01 0.  0.
         14    1    1    2    0    0  0.13952750355E-02 -0.16952031410E-01  0.15348498395E-01  0.22910577564E-01  0.00000000000E+00 0.  1.
     999901    1    3    3    0    0  0.80426861021E-01 -0.70383940939E-01 -0.66580333385E-01  0.88896305880E+00  0.88000000000E+00 0.  1.
        -11    1    4    4    0    0 -0.51781529860E-01  0.47231926901E-01  0.40011185495E-01  0.80705252859E-01  0.51100000000E-03 0.  1.
         11    1    4    4    0    0 -0.30040606196E-01  0.40104045448E-01  0.11220649495E-01  0.51351110777E-01  0.51100000000E-03 0. -1.
</event>
<event>
 8    1  0.1093753E+005  0.1043930E+01  0.7957747E-01            NaN
         13   -1    0    0    0    0  0.00000000000E+00  0.00000000000E+00  0.74505805969E-08  0.10566000000E+00  0.10566000000E+00 0. -1.
     999900   -1    0    0    0    0 -0.00000000000E+00 -0.00000000000E+00 -0.74505805969E-08  0.93827000000E+00  0.93827000000E+00 0. -1.
     999902    2    1    2    0    0 -0.39692428910E-02  0.14161007098E-01 -0.18245009832E-01  0.10204956365E+01  0.10202265310E+01 0.  0.
     999903    2    3    3    0    0 -0.79705120656E-01 -0.10028843009E+00  0.22565159196E-02  0.12962252012E+00  0.19652745078E-01 0.  0.
         14    1    1    2    0    0  0.39692428910E-02 -0.14161007098E-01  0.18245009832E-01  0.23434363548E-01  0.00000000000E+00 0. -1.
     999901    1    3    3    0    0  0.75735877765E-01  0.11444943718E+00 -0.20501525751E-01  0.89087311634E+00  0.88000000000E+00 0. -1.
        -11    1    4    4    0    0 -0.77796284294E-01 -0.89417570072E-01  0.28366222918E-02  0.11855830310E+00  0.51100000000E-03 0.  1.
         11    1    4    4    0    0 -0.19088363616E-02 -0.10870860014E-01 -0.58010637221E-03  0.11064217013E-01  0.51100000000E-03 0. -1.
</event>
<event>
 8    1  0.1093753E+005  0.1043930E+01  0.7957747E-01            NaN
         13   -1    0    0    0    0  0.00000000000E+00  0.00000000000E+00  0.74505805969E-08  0.10566000000E+00  0.10566000000E+00 0.  1.
     999900   -1    0    0    0    0 -0.00000000000E+00 -0.00000000000E+00 -0.74505805969E-08  0.93827000000E+00  0.93827000000E+00 0. -1.
     999902    2    1    2    0    0  0.12794737829E-01  0.15738078875E-01 -0.11136167927E-01  0.10207911435E+01  0.10205288590E+01 0.  0.
     999903    2    3    3    0    0  0.11602851772E+00 -0.57278705789E-01  0.10523945873E-01  0.13148926864E+00  0.20861621919E-01 0.  0.
         14    1    1    2    0    0 -0.12794737829E-01 -0.15738078875E-01  0.11136167927E-01  0.23138856473E-01  0.00000000000E+00 0.  1.
     999901    1    3    3    0    0 -0.10323377989E+00  0.73016784663E-01 -0.21660113800E-01  0.88930187489E+00  0.88000000000E+00 0.  1.
        -11    1    4    4    0    0  0.27802245882E-01 -0.24128846985E-01  0.32278063285E-02  0.36957353634E-01  0.51100000000E-03 0. -1.
         11    1    4    4    0    0  0.88226271837E-01 -0.33149858804E-01  0.72961395441E-02  0.94531915003E-01  0.51100000000E-03 0.  1.
</event>
<event>
 8    1  0.1093753E+005  0.1043930E+01  0.7957747E-01            NaN
         13   -1    0    0    0    0  0.00000000000E+00  0.00000000000E+00  0.74505805969E-08  0.10566000000E+00  0.10566000000E+00 0.  1.
     999900   -1    0    0    0    0 -0.00000000000E+00 -0.00000000000E+00 -0.74505805969E-08  0.93827000000E+00  0.93827000000E+00 0. -1.
     999902    2    1    2    0    0  0.11298508500E-01 -0.17559886470E-01  0.10042964021E-01  0.10207596087E+01  0.10204966005E+01 0.  0.
     999903    2    3    3    0    0 -0.62350141709E-01 -0.54205133979E-01  0.10122017305E+00  0.13223257968E+00  0.20351780606E-01 0.  0.
         14    1    1    2    0    0 -0.11298508500E-01  0.17559886470E-01 -0.10042964021E-01  0.23170391310E-01  0.00000000000E+00 0. -1.
     999901    1    3    3    0    0  0.73648650209E-01  0.36645247509E-01 -0.91177209033E-01  0.88852702901E+00  0.88000000000E+00 0. -1.
        -11    1    4    4    0    0 -0.52820364393E-01 -0.51955001159E-01  0.95533988143E-01  0.12089796132E+00  0.51100000000E-03 0. -1.
         11    1    4    4    0    0 -0.95297773164E-02 -0.22501328203E-02  0.56861849099E-02  0.11334618354E-01  0.51100000000E-03 0.  1.
</event>
<event>
 8    1  0.1093753E+005  0.1043930E+01  0.7957747E-01            NaN
         13   -1    0    0    0    0  0.00000000000E+00  0.00000000000E+00  0.74505805969E-08  0.10566000000E+00  0.10566000000E+00 0. -1.
     999900   -1    0    0    0    0 -0.00000000000E+00 -0.00000000000E+00 -0.74505805969E-08  0.93827000000E+00  0.93827000000E+00 0. -1.
     999902    2    1    2    0    0  0.16276487482E-01  0.14697643927E-01  0.10326547512E-01  0.10196899017E+01  0.10194017428E+01 0.  0.
     999903    2    3    3    0    0 -0.36701592297E-01 -0.11089308803E+00 -0.46623849564E-01  0.12737658419E+00  0.20167473875E-01 0.  0.
         14    1    1    2    0    0 -0.16276487482E-01 -0.14697643927E-01 -0.10326547512E-01  0.24240098294E-01  0.00000000000E+00 0.  1.
     999901    1    3    3    0    0  0.52978079778E-01  0.12559073195E+00  0.56950397077E-01  0.89231331752E+00  0.88000000000E+00 0.  1.
        -11    1    4    4    0    0 -0.97880830818E-02 -0.57499341462E-01 -0.17714248322E-01  0.60959302437E-01  0.51100000000E-03 0.  1.
         11    1    4    4    0    0 -0.26913509215E-01 -0.53393746565E-01 -0.28909601243E-01  0.66417281753E-01  0.51100000000E-03 0. -1.
</event>
<event>
 8    1  0.1093753E+005  0.1043930E+01  0.7957747E-01            NaN
         13   -1    0    0    0    0  0.00000000000E+00  0.00000000000E+00  0.74505805969E-08  0.10566000000E+00  0.10566000000E+00 0. -1.
     999900   -1    0    0    0    0 -0.00000000000E+00 -0.00000000000E+00 -0.74505805969E-08  0.93827000000E+00  0.93827000000E+00 0.  1.
     999902    2    1    2    0    0 -0.18394850193E-01  0.18199473089E-01 -0.61485829748E-02  0.10173330752E+01  0.10169853438E+01 0.  0.
     999903    2    3    3    0    0 -0.11526684234E+00 -0.51845504710E-01 -0.17537044082E-01  0.12917758276E+00  0.20122094081E-01 0.  0.
         14    1    1    2    0    0  0.18394850193E-01 -0.18199473089E-01  0.61485829748E-02  0.26596924764E-01  0.00000000000E+00 0. -1.
     999901    1    3    3    0    0  0.96871992145E-01  0.70044977799E-01  0.11388461108E-01  0.88815549248E+00  0.88000000000E+00 0.  1.
        -11    1    4    4    0    0 -0.23910166064E-01 -0.13712502596E-01 -0.11880687809E-01  0.30019004521E-01  0.51100000000E-03 0. -1.
         11    1    4    4    0    0 -0.91356676274E-01 -0.38133002114E-01 -0.56563562730E-02  0.99158578234E-01  0.51100000000E-03 0.  1.
</event>
<event>
 8    1  0.1093753E+005  0.1043930E+01  0.7957747E-01            NaN
         13   -1    0    0    0    0  0.00000000000E+00  0.00000000000E+00  0.74505805969E-08  0.10566000000E+00  0.10566000000E+00 0.  1.
     999900   -1    0    0    0    0 -0.00000000000E+00 -0.00000000000E+00 -0.74505805969E-08  0.93827000000E+00  0.93827000000E+00 0. -1.
     999902    2    1    2    0    0 -0.12815339116E-01 -0.15841853017E-01 -0.11105080210E-01  0.10207239657E+01  0.10204601384E+01 0.  0.
     999903    2    3    3    0    0 -0.64718177640E-01 -0.10148199909E+00  0.52643644388E-01  0.13275322337E+00  0.19105663100E-01 0.  0.
         14    1    1    2    0    0  0.12815339116E-01  0.15841853017E-01  0.11105080210E-01  0.23206034348E-01  0.00000000000E+00 0.  1.
     999901    1    3    3    0    0  0.51902838524E-01  0.85640146078E-01 -0.63748724598E-01  0.88797074229E+00  0.88000000000E+00 0.  1.
        -11    1    4    4    0    0 -0.48646055636E-01 -0.69548931100E-01  0.28176840305E-01  0.89429793674E-01  0.51100000000E-03 0. -1.
         11    1    4    4    0    0 -0.16072122004E-01 -0.31933067995E-01  0.24466804083E-01  0.43323429693E-01  0.51100000000E-03 0.  1.
</event>
<event>
 8    1  0.1093753E+005  0.1043930E+01  0.7957747E-01            NaN
         13   -1    0    0    0    0  0.00000000000E+00  0.00000000000E+00  0.74505805969E-08  0.10566000000E+00  0.10566000000E+00 0. -1.
     999900   -1    0    0    0    0 -0.00000000000E+00 -0.00000000000E+00 -0.74505805969E-08  0.93827000000E+00  0.93827000000E+00 0.  1.
     999902    2    1    2    0    0 -0.46798390409E-02 -0.53577730019E-02 -0.21819799862E-01  0.10209798303E+01  0.10207218541E+01 0.  0.
     999903    2    3    3    0    0  0.73253092292E-01  0.30468086411E-01 -0.10469680890E+00  0.13293386714E+00  0.20388021453E-01 0.  0.
         14    1    1    2    0    0  0.46798390409E-02  0.53577730019E-02  0.21819799862E-01  0.22950169738E-01  0.00000000000E+00 0. -1.
     999901    1    3    3    0    0 -0.77932931333E-01 -0.35825859413E-01  0.82877009040E-01  0.88804596312E+00  0.88000000000E+00 0. -1.
        -11    1    4    4    0    0  0.73711277886E-02  0.10362626524E-01 -0.20759642268E-01  0.24350388528E-01  0.51100000000E-03 0.  1.
         11    1    4    4    0    0  0.65881964503E-01  0.20105459887E-01 -0.83937166634E-01  0.10858347861E+00  0.51100000000E-03 0. -1.
</event>
<event>
 8    1  0.1093753E+005  0.1043930E+01  0.7957747E-01            NaN
         13   -1    0    0    0    0  0.00000000000E+00  0.00000000000E+00  0.74505805969E-08  0.10566000000E+00  0.10566000000E+00 0. -1.
     999900   -1    0    0    0    0 -0.00000000000E+00 -0.00000000000E+00 -0.74505805969E-08  0.93827000000E+00  0.93827000000E+00 0.  1.
     999902    2    1    2    0    0  0.18588551584E-01  0.14643527044E-01 -0.15107243449E-02  0.10202182008E+01  0.10199426100E+01 0.  0.
     999903    2    3    3    0    0 -0.10599157916E-01 -0.29697077150E-01 -0.12455866437E+00  0.13007281540E+00  0.20243959513E-01 0.  0.
         14    1    1    2    0    0 -0.18588551584E-01 -0.14643527044E-01  0.15107243449E-02  0.23711799221E-01  0.00000000000E+00 0.  1.
     999901    1    3    3    0    0  0.29187709500E-01  0.44340604193E-01  0.12304794003E+00  0.89014538538E+00  0.88000000000E+00 0. -1.
        -11    1    4    4    0    0 -0.95141376552E-02 -0.30957493098E-01 -0.12412247843E+00  0.12827913301E+00  0.51100000000E-03 0.  1.
         11    1    4    4    0    0 -0.10850202608E-02  0.12604159484E-02 -0.43618594038E-03  0.17936823866E-02  0.51100000000E-03 0. -1.
</event>
<event>
 8    1  0.1093753E+005  0.1043930E+01  0.7957747E-01            NaN
         13   -1    0    0    0    0  0.00000000000E+00  0.00000000000E+00  0.74505805969E-08  0.10566000000E+00  0.10566000000E+00 0.  1.
     999900   -1    0    0    0    0 -0.00000000000E+00 -0.00000000000E+00 -0.74505805969E-08  0.93827000000E+00  0.93827000000E+00 0. -1.
     999902    2    1    2    0    0 -0.19361010828E-01  0.52301424908E-02 -0.13919966385E-01  0.10195175320E+01  0.10192252104E+01 0.  0.
     999903    2    3    3    0    0  0.88083938892E-01 -0.75272429956E-01 -0.50099150916E-01  0.12860001908E+00  0.24562593173E-01 0.  0.
         14    1    1    2    0    0  0.19361010828E-01 -0.52301424908E-02  0.13919966385E-01  0.24412468022E-01  0.00000000000E+00 0.  1.
     999901    1    3    3    0    0 -0.10744494972E+00  0.80502572447E-01  0.36179184531E-01  0.89091751290E+00  0.88000000000E+00 0.  1.
        -11    1    4    4    0    0  0.38328008846E-01 -0.23061697629E-01 -0.29524179667E-01  0.53598661044E-01  0.51100000000E-03 0. -1.
         11    1    4    4    0    0  0.49755930045E-01 -0.52210732327E-01 -0.20574971249E-01  0.75001358039E-01  0.51100000000E-03 0.  1.
</event>
<event>
 8    1  0.1093753E+005  0.1043930E+01  0.7957747E-01            NaN
         13   -1    0    0    0    0  0.00000000000E+00  0.00000000000E+00  0.74505805969E-08  0.10566000000E+00  0.10566000000E+00 0. -1.
     999900   -1    0    0    0    0 -0.00000000000E+00 -0.00000000000E+00 -0.74505805969E-08  0.93827000000E+00  0.93827000000E+00 0. -1.
     999902    2    1    2    0    0 -0.21347912526E-01  0.81850324700E-02 -0.48834272909E-02  0.10205510354E+01  0.10202832155E+01 0.  0.
     999903    2    3    3    0    0 -0.10839990038E+00 -0.35247941624E-01  0.64887461233E-01  0.13244493319E+00  0.18393529052E-01 0.  0.
         14    1    1    2    0    0  0.21347912526E-01 -0.81850324700E-02  0.48834272909E-02  0.23378964644E-01  0.00000000000E+00 0. -1.
     999901    1    3    3    0    0  0.87051987850E-01  0.43432974094E-01 -0.69770888524E-01  0.88810610217E+00  0.88000000000E+00 0. -1.
        -11    1    4    4    0    0 -0.12555273220E-01 -0.78724750428E-02  0.14560491614E-01  0.20781717590E-01  0.51100000000E-03 0.  1.
         11    1    4    4    0    0 -0.95844627155E-01 -0.27375466581E-01  0.50326969619E-01  0.11166321560E+00  0.51100000000E-03 0. -1.
</event>
<event>
 8    1  0.1093753E+005  0.1043930E+01  0.7957747E-01            NaN
         13   -1    0    0    0    0  0.00000000000E+00  0.00000000000E+00  0.74505805969E-08  0.10566000000E+00  0.10566000000E+00 0.  1.
     999900   -1    0    0    0    0 -0.00000000000E+00 -0.00000000000E+00 -0.74505805969E-08  0.93827000000E+00  0.93827000000E+00 0. -1.
     999902    2    1    2    0    0 -0.32558480889E-02  0.18282128643E-01 -0.11343204069E-01  0.10221698287E+01  0.10219381849E+01 0.  0.
     999903    2    3    3    0    0  0.30613147911E-01 -0.11402736582E+00 -0.52108587140E-01  0.13070209087E+00  0.20696055721E-01 0.  0.
         14    1    1    2    0    0  0.32558480889E-02 -0.18282128643E-01  0.11343204069E-01  0.21760171255E-01  0.00000000000E+00 0.  1.
     999901    1    3    3    0    0 -0.33868996000E-01  0.13230949447E+00  0.40765383070E-01  0.89146773788E+00  0.88000000000E+00 0.  1.
        -11    1    4    4    0    0  0.21968303626E-01 -0.10420425188E+00 -0.43541032791E-01  0.11505309701E+00  0.51100000000E-03 0. -1.
         11    1    4    4    0    0  0.86448442856E-02 -0.98231139379E-02 -0.85675543484E-02  0.15648993855E-01  0.51100000000E-03 0.  1.
</event>
<event>
 8    1  0.1093753E+005  0.1043930E+01  0.7957747E-01            NaN
         13   -1    0    0    0    0  0.00000000000E+00  0.00000000000E+00  0.74505805969E-08  0.10566000000E+00  0.10566000000E+00 0. -1.
     999900   -1    0    0    0    0 -0.00000000000E+00 -0.00000000000E+00 -0.74505805969E-08  0.93827000000E+00  0.93827000000E+00 0.  1.
     999902    2    1    2    0    0 -0.11947361649E-01 -0.15124716727E-01 -0.10354719409E-02  0.10246279610E+01  0.10244461381E+01 0.  0.
     999903    2    3    3    0    0  0.94479885856E-01 -0.57525229083E-01  0.72960232579E-01  0.13412252772E+00  0.20737793797E-01 0.  0.
         14    1    1    2    0    0  0.11947361649E-01  0.15124716727E-01  0.10354719409E-02  0.19302038974E-01  0.00000000000E+00 0.  1.
     999901    1    3    3    0    0 -0.10642724750E+00  0.42400512356E-01 -0.73995704520E-01  0.89050543331E+00  0.88000000000E+00 0. -1.
        -11    1    4    4    0    0  0.19450434333E-01 -0.22337188309E-01  0.20915460820E-01  0.36262749477E-01  0.51100000000E-03 0. -1.
         11    1    4    4    0    0  0.75029451523E-01 -0.35188040773E-01  0.52044771759E-01  0.97859778243E-01  0.51100000000E-03 0.  1.
</event>
<event>
 8    1  0.1093753E+005  0.1043930E+01  0.7957747E-01            NaN
         13   -1    0    0    0    0  0.00000000000E+00  0.00000000000E+00  0.74505805969E-08  0.10566000000E+00  0.10566000000E+00 0. -1.
     999900   -1    0    0    0    0 -0.00000000000E+00 -0.00000000000E+00 -0.74505805969E-08  0.93827000000E+00  0.93827000000E+00 0.  1.
     999902    2    1    2    0    0  0.30115088887E-02  0.74303177082E-02  0.90859434610E-02  0.10318125260E+01  0.10317413705E+01 0.  0.
     999903    2    3    3    0    0  0.47126600593E-01  0.20735185113E-01  0.13114657866E+00  0.14219352922E+00  0.19201829899E-01 0.  0.
         14    1    1    2    0    0 -0.30115088887E-02 -0.74303177082E-02 -0.90859434610E-02  0.12117473978E-01  0.00000000000E+00 0.  1.
     999901    1    3    3    0    0 -0.44115091705E-01 -0.13304867405E-01 -0.12206063520E+00  0.88961899681E+00  0.88000000000E+00 0.  1.
        -11    1    4    4    0    0  0.41306735909E-01  0.19018759895E-01  0.12680932931E+00  0.13471758156E+00  0.51100000000E-03 0.  1.
         11    1    4    4    0    0  0.58198646845E-02  0.17164252183E-02  0.43372493491E-02  0.74759476585E-02  0.51100000000E-03 0. -1.
</event>
<event>
 8    1  0.1093753E+005  0.1043930E+01  0.7957747E-01            NaN
         13   -1    0    0    0    0  0.00000000000E+00  0.00000000000E+00  0.74505805969E-08  0.10566000000E+00  0.10566000000E+00 0.  1.
     999900   -1    0    0    0    0 -0.00000000000E+00 -0.00000000000E+00 -0.74505805969E-08  0.93827000000E+00  0.93827000000E+00 0. -1.
     999902    2    1    2    0    0  0.13509360606E-01  0.14161365506E-01 -0.58699158344E-02  0.10234971096E+01  0.10232931302E+01 0.  0.
     999903    2    3    3    0    0  0.10997455432E+00  0.48309885542E-01  0.58647562747E-01  0.13522116148E+00  0.20420045464E-01 0.  0.
         14    1    1    2    0    0 -0.13509360606E-01 -0.14161365506E-01  0.58699158344E-02  0.20432890370E-01  0.00000000000E+00 0. -1.
     999901    1    3    3    0    0 -0.96465193716E-01 -0.34148520036E-01 -0.64517478581E-01  0.88827594815E+00  0.88000000000E+00 0. -1.
        -11    1    4    4    0    0  0.58141945232E-01  0.31759673422E-01  0.22822587906E-01  0.70073492071E-01  0.51100000000E-03 0. -1.
         11    1    4    4    0    0  0.51832609089E-01  0.16550212120E-01  0.35824974840E-01  0.65147669410E-01  0.51100000000E-03 0.  1.
</event>
<event>
 8    1  0.1093753E+005  0.1043930E+01  0.7957747E-01            NaN
         13   -1    0    0    0    0  0.00000000000E+00  0.00000000000E+00  0.74505805969E-08  0.10566000000E+00  0.10566000000E+00 0.  1.
     999900   -1    0    0    0    0 -0.00000000000E+00 -0.00000000000E+00 -0.74505805969E-08  0.93827000000E+00  0.93827000000E+00 0.  1.
     999902    2    1    2    0    0  0.23153224806E-01 -0.12601425109E-02 -0.52106590307E-02  0.10201642527E+01  0.10198873917E+01 0.  0.
     999903    2    3    3    0    0  0.22126068997E-01  0.16687369973E-01  0.12575735601E+00  0.13029022271E+00  0.19814093431E-01 0.  0.
         14    1    1    2    0    0 -0.23153224806E-01  0.12601425109E-02  0.52106590307E-02  0.23765747318E-01  0.00000000000E+00 0. -1.
     999901    1    3    3    0    0  0.10271558086E-02 -0.17947512483E-01 -0.13096801504E+00  0.88987402997E+00  0.88000000000E+00 0.  1.
        -11    1    4    4    0    0  0.15934573073E-01  0.10613488365E-01  0.42931469969E-01  0.47009881823E-01  0.51100000000E-03 0. -1.
         11    1    4    4    0    0  0.61914959240E-02  0.60738816071E-02  0.82825886037E-01  0.83280340888E-01  0.51100000000E-03 0.  1.
</event>
<event>
 8    1  0.1093753E+005  0.1043930E+01  0.7957747E-01            NaN
         13   -1    0    0    0    0  0.00000000000E+00  0.00000000000E+00  0.74505805969E-08  0.10566000000E+00  0.10566000000E+00 0.  1.
     999900   -1    0    0    0    0 -0.00000000000E+00 -0.00000000000E+00 -0.74505805969E-08  0.93827000000E+00  0.93827000000E+00 0.  1.
     999902    2    1    2    0    0  0.41041066300E-02  0.22356121249E-01 -0.68069738610E-02  0.10202029112E+01  0.10199269608E+01 0.  0.
     999903    2    3    3    0    0 -0.51761927023E-01  0.31460050958E-01 -0.11527447771E+00  0.13173845237E+00  0.19944491157E-01 0.  0.
         14    1    1    2    0    0 -0.41041066300E-02 -0.22356121249E-01  0.68069738610E-02  0.23727088774E-01  0.00000000000E+00 0.  1.
     999901    1    3    3    0    0  0.55866033653E-01 -0.91039297084E-02  0.10846750385E+00  0.88846445885E+00  0.88000000000E+00 0. -1.
        -11    1    4    4    0    0 -0.26780540199E-01  0.24147449987E-01 -0.51658194703E-01  0.63001006937E-01  0.51100000000E-03 0. -1.
         11    1    4    4    0    0 -0.24981386824E-01  0.73126009706E-02 -0.63616283006E-01  0.68737445437E-01  0.51100000000E-03 0.  1.
</event>
<event>
 8    1  0.1093753E+005  0.1043930E+01  0.7957747E-01            NaN
         13   -1    0    0    0    0  0.00000000000E+00  0.00000000000E+00  0.74505805969E-08  0.10566000000E+00  0.10566000000E+00 0. -1.
     999900   -1    0    0    0    0 -0.00000000000E+00 -0.00000000000E+00 -0.74505805969E-08  0.93827000000E+00  0.93827000000E+00 0.  1.
     999902    2    1    2    0    0  0.19003121361E-01  0.12214630876E-01  0.11167509059E-02  0.10213122423E+01  0.10210617677E+01 0.  0.
     999903    2    3    3    0    0  0.70344206215E-01 -0.34103393332E-01  0.10518022599E+00  0.13248690899E+00  0.19456421304E-01 0.  0.
         14    1    1    2    0    0 -0.19003121361E-01 -0.12214630876E-01 -0.11167509059E-02  0.22617757658E-01  0.00000000000E+00 0.  1.
     999901    1    3    3    0    0 -0.51341084854E-01  0.46318024208E-01 -0.10406347508E+00  0.88882533335E+00  0.88000000000E+00 0.  1.
        -11    1    4    4    0    0  0.22737067249E-01 -0.15881848354E-01  0.24277636575E-01  0.36862882319E-01  0.51100000000E-03 0.  1.
         11    1    4    4    0    0  0.47607138967E-01 -0.18221544979E-01  0.80902589414E-01  0.95624026671E-01  0.51100000000E-03 0. -1.
</event>
<event>
 8    1  0.1093753E+005  0.1043930E+01  0.7957747E-01            NaN
         13   -1    0    0    0    0  0.00000000000E+00  0.00000000000E+00  0.74505805969E-08  0.10566000000E+00  0.10566000000E+00 0.  1.
     999900   -1    0    0    0    0 -0.00000000000E+00 -0.00000000000E+00 -0.74505805969E-08  0.93827000000E+00  0.93827000000E+00 0.  1.
     999902    2    1    2    0    0  0.13976166408E-01 -0.65881943575E-02  0.18027417512E-01  0.10201870997E+01  0.10199107770E+01 0.  0.
     999903    2    3    3    0    0 -0.82608364135E-01  0.64665821235E-01 -0.69980794264E-01  0.12768995594E+00  0.20040035477E-01 0.  0.
         14    1    1    2    0    0 -0.13976166408E-01  0.65881943575E-02 -0.18027417512E-01  0.23742900297E-01  0.00000000000E+00 0. -1.
     999901    1    3    3    0    0  0.96584530543E-01 -0.71254015593E-01  0.88008211776E-01  0.89249714376E+00  0.88000000000E+00 0.  1.
        -11    1    4    4    0    0 -0.63790533507E-01  0.50432846093E-01 -0.63615646223E-01  0.10324686773E+00  0.51100000000E-03 0.  1.
         11    1    4    4    0    0 -0.18817830628E-01  0.14232975142E-01 -0.63651480403E-02  0.24443088216E-01  0.51100000000E-03 0. -1.
</event>
<event>
 8    1  0.1093753E+005  0.1043930E+01  0.7957747E-01            NaN
         13   -1    0    0    0    0  0.00000000000E+00  0.00000000000E+00  0.74505805969E-08  0.10566000000E+00  0.10566000000E+00 0.  1.
     999900   -1    0    0    0    0 -0.00000000000E+00 -0.00000000000E+00 -0.74505805969E-08  0.93827000000E+00  0.93827000000E+00 0.  1.
     999902    2    1    2    0    0  0.17731674858E-01  0.72731183535E-02  0.14123787625E-01  0.10201226079E+01  0.10198447642E+01 0.  0.
     999903    2    3    3    0    0  0.46770259605E-01 -0.11670470013E+00 -0.26473998122E-01  0.13003164672E+00  0.19997808831E-01 0.  0.
         14    1    1    2    0    0 -0.17731674858E-01 -0.72731183535E-02 -0.14123787625E-01  0.23807392144E-01  0.00000000000E+00 0.  1.
     999901    1    3    3    0    0 -0.29038584748E-01  0.12397781848E+00  0.40597785746E-01  0.89009096113E+00  0.88000000000E+00 0. -1.
        -11    1    4    4    0    0  0.12047812886E-01 -0.54372396144E-01 -0.15747696162E-01  0.57877096620E-01  0.51100000000E-03 0. -1.
         11    1    4    4    0    0  0.34722446719E-01 -0.62332303984E-01 -0.10726301959E-01  0.72154550105E-01  0.51100000000E-03 0.  1.
</event>
<event>
 8    1  0.1093753E+005  0.1043930E+01  0.7957747E-01            NaN
         13   -1    0    0    0    0  0.00000000000E+00  0.00000000000E+00  0.74505805969E-08  0.10566000000E+00  0.10566000000E+00 0. -1.
     999900   -1    0    0    0    0 -0.00000000000E+00 -0.00000000000E+00 -0.74505805969E-08  0.93827000000E+00  0.93827000000E+00 0. -1.
     999902    2    1    2    0    0  0.15035301556E-01 -0.13158821218E-01 -0.15343039960E-01  0.10187382604E+01  0.10184267374E+01 0.  0.
     999903    2    3    3    0    0  0.68697111498E-01 -0.10959020708E+00  0.13350265760E-01  0.13138156334E+00  0.18803695745E-01 0.  0.
         14    1    1    2    0    0 -0.15035301556E-01  0.13158821218E-01  0.15343039960E-01  0.25191739598E-01  0.00000000000E+00 0.  1.
     999901    1    3    3    0    0 -0.53661809941E-01  0.96431385864E-01 -0.28693305720E-01  0.88735669706E+00  0.88000000000E+00 0. -1.
        -11    1    4    4    0    0  0.16608209308E-01 -0.17665813322E-01  0.81891813469E-02  0.25597605139E-01  0.51100000000E-03 0. -1.
         11    1    4    4    0    0  0.52088902190E-01 -0.91924393761E-01  0.51610844131E-02  0.10578395820E+00  0.51100000000E-03 0.  1.
</event>
<event>
 8    1  0.1093753E+005  0.1043930E+01  0.7957747E-01            NaN
         13   -1    0    0    0    0  0.00000000000E+00  0.00000000000E+00  0.74505805969E-08  0.10566000000E+00  0.10566000000E+00 0.  1.
     999900   -1    0    0    0    0 -0.00000000000E+00 -0.00000000000E+00 -0.74505805969E-08  0.93827000000E+00  0.93827000000E+00 0. -1.
     999902    2    1    2    0    0 -0.59810814538E-02  0.18920046623E-01 -0.89526686630E-02  0.10221609445E+01  0.10219291095E+01 0.  0.
     999903    2    3    3    0    0  0.51064563416E-01 -0.11531144088E+00 -0.24875585391E-01  0.13001418693E+00  0.19508357651E-01 0.  0.
         14    1    1    2    0    0  0.59810814538E-02 -0.18920046623E-01  0.89526686630E-02  0.21769055464E-01  0.00000000000E+00 0.  1.
     999901    1    3    3    0    0 -0.57045644870E-01  0.13423148751E+00  0.15922916728E-01  0.89214675761E+00  0.88000000000E+00 0.  1.
        -11    1    4    4    0    0  0.36056144790E-01 -0.60985283544E-01 -0.87337023438E-02  0.71384795746E-01  0.51100000000E-03 0.  1.
         11    1    4    4    0    0  0.15008418626E-01 -0.54326157339E-01 -0.16141883047E-01  0.58629391181E-01  0.51100000000E-03 0. -1.
</event>
<event>
 7    1  0.1093753E+005  0.1043930E+01  0.7957747E-01            NaN
         13   -1    0    0    0    0  0.00000000000E+00  0.00000000000E+00  0.74505805969E-08  0.10566000000E+00  0.10566000000E+00 0. -1.
     999900   -1    0    0    0    0 -0.00000000000E+00 -0.00000000000E+00 -0.74505805969E-08  0.93827000000E+00  0.93827000000E+00 0.  1.
     999903    2    1    2    0    0  0.88278053526E-01 -0.31849446886E-01 -0.60156093245E-01  0.11323744089E+00  0.19913825918E-01 0.  0.
         14    1    1    2    0    0  0.32629858260E-02  0.22450143904E-01  0.39620820084E-01  0.45655946184E-01  0.00000000000E+00 0. -1.
     999901    1    1    2    0    0 -0.91541039352E-01  0.93993029819E-02  0.20535273161E-01  0.88503661293E+00  0.88000000000E+00 0.  1.
        -11    1    3    3    0    0  0.31933730269E-01 -0.20762968281E-01 -0.18879818019E-01  0.42515557507E-01  0.51100000000E-03 0. -1.
         11    1    3    3    0    0  0.56344323257E-01 -0.11086478605E-01 -0.41276275226E-01  0.70721883379E-01  0.51100000000E-03 0.  1.
</event>
<event>
 8    1  0.1093753E+005  0.1043930E+01  0.7957747E-01            NaN
         13   -1    0    0    0    0  0.00000000000E+00  0.00000000000E+00  0.74505805969E-08  0.10566000000E+00  0.10566000000E+00 0.  1.
     999900   -1    0    0    0    0 -0.00000000000E+00 -0.00000000000E+00 -0.74505805969E-08  0.93827000000E+00  0.93827000000E+00 0.  1.
     999902    2    1    2    0    0  0.16533375613E-01 -0.32081129640E-02  0.17375837762E-01  0.10197315654E+01  0.10194444081E+01 0.  0.
     999903    2    3    3    0    0 -0.66496655249E-01 -0.10260941378E+00  0.39286200449E-01  0.12998178677E+00  0.20034030804E-01 0.  0.
         14    1    1    2    0    0 -0.16533375613E-01  0.32081129640E-02 -0.17375837762E-01  0.24198434575E-01  0.00000000000E+00 0. -1.
     999901    1    3    3    0    0  0.83030030862E-01  0.99401300815E-01 -0.21910362688E-01  0.88974977866E+00  0.88000000000E+00 0. -1.
        -11    1    4    4    0    0 -0.18150482465E-01 -0.34541398290E-01  0.36187372234E-02  0.39190618643E-01  0.51100000000E-03 0. -1.
         11    1    4    4    0    0 -0.48346172784E-01 -0.68068015489E-01  0.35667463226E-01  0.90791168124E-01  0.51100000000E-03 0.  1.
</event>
<event>
 8    1  0.1093753E+005  0.1043930E+01  0.7957747E-01            NaN
         13   -1    0    0    0    0  0.00000000000E+00  0.00000000000E+00  0.74505805969E-08  0.10566000000E+00  0.10566000000E+00 0. -1.
     999900   -1    0    0    0    0 -0.00000000000E+00 -0.00000000000E+00 -0.74505805969E-08  0.93827000000E+00  0.93827000000E+00 0. -1.
     999902    2    1    2    0    0  0.12394754066E-01  0.19656773347E-01 -0.79442530718E-02  0.10193712984E+01  0.10190754213E+01 0.  0.
     999903    2    3    3    0    0  0.99489551101E-01 -0.77511027029E-01  0.18607463430E-01  0.12935327683E+00  0.21906675718E-01 0.  0.
         14    1    1    2    0    0 -0.12394754066E-01 -0.19656773347E-01  0.79442530718E-02  0.24558701586E-01  0.00000000000E+00 0.  1.
     999901    1    3    3    0    0 -0.87094797036E-01  0.97167800376E-01 -0.26551716502E-01  0.89001802159E+00  0.88000000000E+00 0. -1.
        -11    1    4    4    0    0  0.42162760520E-02 -0.94346432985E-02 -0.17695198535E-02  0.10496751851E-01  0.51100000000E-03 0.  1.
         11    1    4    4    0    0  0.95273275049E-01 -0.68076383730E-01  0.20376983284E-01  0.11885652498E+00  0.51100000000E-03 0. -1.
</event>
<event>
 7    1  0.1150798E+005  0.1043930E+01  0.7957747E-01            NaN
         13   -1    0    0    0    0  0.00000000000E+00  0.00000000000E+00  0.74505805969E-08  0.10566000000E+00  0.10566000000E+00 0.  1.
     999900   -1    0    0    0    0 -0.00000000000E+00 -0.00000000000E+00 -0.74505805969E-08  0.93827000000E+00  0.93827000000E+00 0.  1.
     999903    2    1    2    0    0 -0.59315295382E-01  0.67380255196E-01 -0.68939329885E-01  0.11515804232E+00  0.21221226399E-01 0.  0.
         14    1    1    2    0    0  0.41146448630E-01  0.10847134397E-01  0.29294824344E-02  0.42652929874E-01  0.00000000000E+00 0. -1.
     999901    1    1    2    0    0  0.18168846752E-01 -0.78227389593E-01  0.66009847451E-01  0.88611902780E+00  0.88000000000E+00 0. -1.
        -11    1    3    3    0    0 -0.33529465761E-01  0.40533198359E-01 -0.27177757987E-01  0.59211965798E-01  0.51100000000E-03 0.  1.
         11    1    3    3    0    0 -0.25785829621E-01  0.26847056837E-01 -0.41761571899E-01  0.55946076525E-01  0.51100000000E-03 0. -1.
</event>
<event>
 8    1  0.1093753E+005  0.1043930E+01  0.7957747E-01            NaN
         13   -1    0    0    0    0  0.00000000000E+00  0.00000000000E+00  0.74505805969E-08  0.10566000000E+00  0.10566000000E+00 0.  1.
     999900   -1    0    0    0    0 -0.00000000000E+00 -0.00000000000E+00 -0.74505805969E-08  0.93827000000E+00  0.93827000000E+00 0.  1.
     999902    2    1    2    0    0  0.15670080592E-01 -0.81156912967E-02  0.16183590521E-01  0.10199858050E+01  0.10197047210E+01 0.  0.
     999903    2    3    3    0    0  0.42821495873E-01  0.37116592457E-01 -0.11373723612E+00  0.12888391408E+00  0.21530965672E-01 0.  0.
         14    1    1    2    0    0 -0.15670080592E-01  0.81156912967E-02 -0.16183590521E-01  0.23944194977E-01  0.00000000000E+00 0.  1.
     999901    1    3    3    0    0 -0.27151415281E-01 -0.45232283754E-01  0.12992082665E+00  0.89110189094E+00  0.88000000000E+00 0. -1.
        -11    1    4    4    0    0  0.24837475809E-01  0.24394043923E-01 -0.46249579895E-01  0.57890019390E-01  0.51100000000E-03 0.  1.
         11    1    4    4    0    0  0.17984020064E-01  0.12722548535E-01 -0.67487656230E-01  0.70993894690E-01  0.51100000000E-03 0. -1.
</event>
<event>
 8    1  0.1093753E+005  0.1043930E+01  0.7957747E-01            NaN
         13   -1    0    0    0    0  0.00000000000E+00  0.00000000000E+00  0.74505805969E-08  0.10566000000E+00  0.10566000000E+00 0. -1.
     999900   -1    0    0    0    0 -0.00000000000E+00 -0.00000000000E+00 -0.74505805969E-08  0.93827000000E+00  0.93827000000E+00 0. -1.
     999902    2    1    2    0    0 -0.12289259919E-01 -0.12958935910E-01  0.15488729057E-01  0.10202897661E+01  0.10200158559E+01 0.  0.
     999903    2    3    3    0    0 -0.27668212639E-01 -0.38424020991E-01  0.12277883946E+00  0.13327446157E+00  0.21106949282E-01 0.  0.
         14    1    1    2    0    0  0.12289259919E-01  0.12958935910E-01 -0.15488729057E-01  0.23640233862E-01  0.00000000000E+00 0.  1.
     999901    1    3    3    0    0  0.15378952720E-01  0.25465085081E-01 -0.10729011040E+00  0.88701530457E+00  0.88000000000E+00 0. -1.
        -11    1    4    4    0    0 -0.30634670106E-02 -0.20696213501E-01  0.60174012941E-01  0.63709426601E-01  0.51100000000E-03 0.  1.
         11    1    4    4    0    0 -0.24604745628E-01 -0.17727807490E-01  0.62604826520E-01  0.69565034970E-01  0.51100000000E-03 0. -1.
</event>
<event>
 8    1  0.1093753E+005  0.1043930E+01  0.7957747E-01            NaN
         13   -1    0    0    0    0  0.00000000000E+00  0.00000000000E+00  0.74505805969E-08  0.10566000000E+00  0.10566000000E+00 0. -1.
     999900   -1    0    0    0    0 -0.00000000000E+00 -0.00000000000E+00 -0.74505805969E-08  0.93827000000E+00  0.93827000000E+00 0. -1.
     999902    2    1    2    0    0 -0.17810538243E-01 -0.14412127135E-01 -0.11527865427E-01  0.10182820690E+01  0.10179590148E+01 0.  0.
     999903    2    3    3    0    0 -0.76784183217E-01  0.28543851441E-01 -0.10053862670E+00  0.13078783102E+00  0.16937503856E-01 0.  0.
         14    1    1    2    0    0  0.17810538243E-01  0.14412127135E-01  0.11527865427E-01  0.25647930956E-01  0.00000000000E+00 0. -1.
     999901    1    3    3    0    0  0.58973644975E-01 -0.42955978575E-01  0.89010761277E-01  0.88749423802E+00  0.88000000000E+00 0.  1.
        -11    1    4    4    0    0 -0.56332338664E-01  0.14420670448E-01 -0.77529011885E-01  0.96913863407E-01  0.51100000000E-03 0.  1.
         11    1    4    4    0    0 -0.20451844554E-01  0.14123180992E-01 -0.23009614818E-01  0.33873967616E-01  0.51100000000E-03 0. -1.
</event>
<event>
 8    1  0.1093753E+005  0.1043930E+01  0.7957747E-01            NaN
         13   -1    0    0    0    0  0.00000000000E+00  0.00000000000E+00  0.74505805969E-08  0.10566000000E+00  0.10566000000E+00 0. -1.
     999900   -1    0    0    0    0 -0.00000000000E+00 -0.00000000000E+00 -0.74505805969E-08  0.93827000000E+00  0.93827000000E+00 0. -1.
     999902    2    1    2    0    0  0.16253066887E-01 -0.16988606566E-01 -0.52903855830E-02  0.10198309727E+01  0.10195461980E+01 0.  0.
     999903    2    3    3    0    0  0.78534698185E-01  0.70577324319E-01 -0.74187607476E-01  0.13062142428E+00  0.20231110970E-01 0.  0.
         14    1    1    2    0    0 -0.16253066887E-01  0.16988606566E-01  0.52903855830E-02  0.24099027281E-01  0.00000000000E+00 0.  1.
     999901    1    3    3    0    0 -0.62281631298E-01 -0.87565930885E-01  0.68897221893E-01  0.88920954844E+00  0.88000000000E+00 0. -1.
        -11    1    4    4    0    0  0.32589214444E-01  0.22223838788E-01 -0.17803457070E-01  0.43280250845E-01  0.51100000000E-03 0.  1.
         11    1    4    4    0    0  0.45945483742E-01  0.48353485531E-01 -0.56384150405E-01  0.87341173436E-01  0.51100000000E-03 0. -1.
</event>
<event>
 8    1  0.1093753E+005  0.1043930E+01  0.7957747E-01            NaN
         13   -1    0    0    0    0  0.00000000000E+00  0.00000000000E+00  0.74505805969E-08  0.10566000000E+00  0.10566000000E+00 0.  1.
     999900   -1    0    0    0    0 -0.00000000000E+00 -0.00000000000E+00 -0.74505805969E-08  0.93827000000E+00  0.93827000000E+00 0.  1.
     999902    2    1    2    0    0 -0.17847040662E-02  0.41114837867E-02 -0.23354994643E-01  0.10201488049E+01  0.10198715796E+01 0.  0.
     999903    2    3    3    0    0 -0.10076299278E+00 -0.75897183950E-01 -0.29028301809E-01  0.13097487645E+00  0.19955267697E-01 0.  0.
         14    1    1    2    0    0  0.17847040662E-02 -0.41114837867E-02  0.23354994643E-01  0.23781195141E-01  0.00000000000E+00 0.  1.
     999901    1    3    3    0    0  0.98978288717E-01  0.80008667737E-01  0.56733071655E-02  0.88917392841E+00  0.88000000000E+00 0. -1.
        -11    1    4    4    0    0 -0.27237756089E-01 -0.31143906443E-01 -0.55023611776E-02  0.41741770025E-01  0.51100000000E-03 0. -1.
         11    1    4    4    0    0 -0.73525236694E-01 -0.44753277507E-01 -0.23525940631E-01  0.89233106424E-01  0.51100000000E-03 0.  1.
</event>
<event>
 8    1  0.1093753E+005  0.1043930E+01  0.7957747E-01            NaN
         13   -1    0    0    0    0  0.00000000000E+00  0.00000000000E+00  0.74505805969E-08  0.10566000000E+00  0.10566000000E+00 0. -1.
     999900   -1    0    0    0    0 -0.00000000000E+00 -0.00000000000E+00 -0.74505805969E-08  0.93827000000E+00  0.93827000000E+00 0. -1.
     999902    2    1    2    0    0  0.76493844719E-02 -0.19717040971E-01  0.66242808499E-02  0.10217679630E+01  0.10215275886E+01 0.  0.
     999903    2    3    3    0    0  0.96768925018E-01 -0.31684521443E-02 -0.87909771818E-01  0.13207541193E+00  0.18480327865E-01 0.  0.
         14    1    1    2    0    0 -0.76493844719E-02  0.19717040971E-01 -0.66242808499E-02  0.22162037006E-01  0.00000000000E+00 0.  1.
     999901    1    3    3    0    0 -0.89119540547E-01 -0.16548588827E-01  0.94534052668E-01  0.88969255106E+00  0.88000000000E+00 0.  1.
        -11    1    4    4    0    0  0.14836914876E-01 -0.64764402539E-02 -0.18985977026E-01  0.24956096771E-01  0.51100000000E-03 0.  1.
         11    1    4    4    0    0  0.81932010142E-01  0.33079881097E-02 -0.68923794792E-01  0.10711931516E+00  0.51100000000E-03 0. -1.
</event>
<event>
 8    1  0.1093753E+005  0.1043930E+01  0.7957747E-01            NaN
         13   -1    0    0    0    0  0.00000000000E+00  0.00000000000E+00  0.74505805969E-08  0.10566000000E+00  0.10566000000E+00 0. -1.
     999900   -1    0    0    0    0 -0.00000000000E+00 -0.00000000000E+00 -0.74505805969E-08  0.93827000000E+00  0.93827000000E+00 0.  1.
     999902    2    1    2    0    0 -0.49722284538E-03 -0.96474344098E-02  0.21777761499E-01  0.10201058291E+01  0.10198275891E+01 0.  0.
     999903    2    3    3    0    0  0.84742201229E-01 -0.92087216726E-01  0.37140944472E-01  0.13201906282E+00  0.19705000316E-01 0.  0.
         14    1    1    2    0    0  0.49722284538E-03  0.96474344098E-02 -0.21777761499E-01  0.23824170860E-01  0.00000000000E+00 0.  1.
     999901    1    3    3    0    0 -0.85239424075E-01  0.82439782317E-01 -0.15363182973E-01  0.88808676632E+00  0.88000000000E+00 0.  1.
        -11    1    4    4    0    0  0.28736987362E-01 -0.26267982980E-01  0.28495999088E-02  0.39041038832E-01  0.51100000000E-03 0.  1.
         11    1    4    4    0    0  0.56005213867E-01 -0.65819233747E-01  0.34291344563E-01  0.92978023986E-01  0.51100000000E-03 0. -1.
</event>
<event>
 8    1  0.1093753E+005  0.1043930E+01  0.7957747E-01            NaN
         13   -1    0    0    0    0  0.00000000000E+00  0.00000000000E+00  0.74505805969E-08  0.10566000000E+00  0.10566000000E+00 0. -1.
     999900   -1    0    0    0    0 -0.00000000000E+00 -0.00000000000E+00 -0.74505805969E-08  0.93827000000E+00  0.93827000000E+00 0.  1.
     999902    2    1    2    0    0  0.17211391612E-02  0.21475850604E-01  0.22255331042E-01  0.10129546188E+01  0.10124809063E+01 0.  0.
     999903    2    3    3    0    0 -0.59750593093E-02 -0.11660053865E+00  0.30961235050E-01  0.12211225707E+00  0.17928142783E-01 0.  0.
         14    1    1    2    0    0 -0.17211391612E-02 -0.21475850604E-01 -0.22255331042E-01  0.30975381175E-01  0.00000000000E+00 0.  1.
     999901    1    3    3    0    0  0.76961984706E-02  0.13807638925E+00 -0.87059040076E-02  0.89084236176E+00  0.88000000000E+00 0.  1.
        -11    1    4    4    0    0  0.47778667424E-02 -0.52536757600E-01  0.18904867498E-01  0.56041003255E-01  0.51100000000E-03 0.  1.
         11    1    4    4    0    0 -0.10752926052E-01 -0.64063781047E-01  0.12056367552E-01  0.66071253811E-01  0.51100000000E-03 0. -1.
</event>
<event>
 8    1  0.1093753E+005  0.1043930E+01  0.7957747E-01            NaN
         13   -1    0    0    0    0  0.00000000000E+00  0.00000000000E+00  0.74505805969E-08  0.10566000000E+00  0.10566000000E+00 0. -1.
     999900   -1    0    0    0    0 -0.00000000000E+00 -0.00000000000E+00 -0.74505805969E-08  0.93827000000E+00  0.93827000000E+00 0. -1.
     999902    2    1    2    0    0 -0.46484371132E-02 -0.11811640127E-01  0.22290589316E-01  0.10182786222E+01  0.10179554800E+01 0.  0.
     999903    2    3    3    0    0  0.58189482393E-01  0.46079133526E-01  0.10507316985E+00  0.13027361016E+00  0.20531441109E-01 0.  0.
         14    1    1    2    0    0  0.46484371132E-02  0.11811640127E-01 -0.22290589316E-01  0.25651377783E-01  0.00000000000E+00 0.  1.
     999901    1    3    3    0    0 -0.62837919507E-01 -0.57890773653E-01 -0.82782580532E-01  0.88800501206E+00  0.88000000000E+00 0. -1.
        -11    1    4    4    0    0  0.54640250291E-01  0.37620030698E-01  0.99302604765E-01  0.11942400134E+00  0.51100000000E-03 0. -1.
         11    1    4    4    0    0  0.35492321022E-02  0.84591028273E-02  0.57705650835E-02  0.10849608820E-01  0.51100000000E-03 0.  1.
</event>
<event>
 8    1  0.1093753E+005  0.1043930E+01  0.7957747E-01            NaN
         13   -1    0    0    0    0  0.00000000000E+00  0.00000000000E+00  0.74505805969E-08  0.10566000000E+00  0.10566000000E+00 0. -1.
     999900   -1    0    0    0    0 -0.00000000000E+00 -0.00000000000E+00 -0.74505805969E-08  0.93827000000E+00  0.93827000000E+00 0. -1.
     999902    2    1    2    0    0  0.21413478213E-01 -0.73047598935E-02 -0.65037470582E-02  0.10203886472E+01  0.10201170502E+01 0.  0.
     999903    2    3    3    0    0  0.25591978839E-02 -0.75890017144E-01 -0.10627436940E+00  0.13189914332E+00  0.18365680557E-01 0.  0.
         14    1    1    2    0    0 -0.21413478213E-01  0.73047598935E-02  0.65037470582E-02  0.23541352809E-01  0.00000000000E+00 0. -1.
     999901    1    3    3    0    0  0.18854280329E-01  0.68585257251E-01  0.99770622342E-01  0.88848950387E+00  0.88000000000E+00 0.  1.
        -11    1    4    4    0    0  0.59462421683E-02 -0.34348973760E-01 -0.35459332713E-01  0.49727609954E-01  0.51100000000E-03 0. -1.
         11    1    4    4    0    0 -0.33870442844E-02 -0.41541043385E-01 -0.70815036687E-01  0.82171533370E-01  0.51100000000E-03 0.  1.
</event>
<event>
 8    1  0.1093753E+005  0.1043930E+01  0.7957747E-01            NaN
         13   -1    0    0    0    0  0.00000000000E+00  0.00000000000E+00  0.74505805969E-08  0.10566000000E+00  0.10566000000E+00 0.  1.
     999900   -1    0    0    0    0 -0.00000000000E+00 -0.00000000000E+00 -0.74505805969E-08  0.93827000000E+00  0.93827000000E+00 0.  1.
     999902    2    1    2    0    0 -0.12962785517E-01 -0.20737310850E-01  0.12389416388E-01  0.10165152684E+01  0.10161455227E+01 0.  0.
     999903    2    3    3    0    0  0.53261287558E-01 -0.56227080575E-02  0.11450559887E+00  0.12800989769E+00  0.20164873825E-01 0.  0.
         14    1    1    2    0    0  0.12962785517E-01  0.20737310850E-01 -0.12389416388E-01  0.27414731589E-01  0.00000000000E+00 0.  1.
     999901    1    3    3    0    0 -0.66224073075E-01 -0.15114602792E-01 -0.10211618248E+00  0.88850537072E+00  0.88000000000E+00 0.  1.
        -11    1    4    4    0    0  0.32336206318E-01  0.86400395518E-03  0.47169978812E-01  0.57198293367E-01  0.51100000000E-03 0. -1.
         11    1    4    4    0    0  0.20925081239E-01 -0.64867120127E-02  0.67335620057E-01  0.70811604325E-01  0.51100000000E-03 0.  1.
</event>
<event>
 8    1  0.1093753E+005  0.1043930E+01  0.7957747E-01            NaN
         13   -1    0    0    0    0  0.00000000000E+00  0.00000000000E+00  0.74505805969E-08  0.10566000000E+00  0.10566000000E+00 0.  1.
     999900   -1    0    0    0    0 -0.00000000000E+00 -0.00000000000E+00 -0.74505805969E-08  0.93827000000E+00  0.93827000000E+00 0. -1.
     999902    2    1    2    0    0 -0.17506314096E-01 -0.99601540231E-02  0.10053481614E-01  0.10214189317E+01  0.10211708407E+01 0.  0.
     999903    2    3    3    0    0  0.47794113096E-01  0.10776103024E+00  0.51623710515E-01  0.13021160068E+00  0.19832714834E-01 0.  0.
         14    1    1    2    0    0  0.17506314096E-01  0.99601540231E-02 -0.10053481614E-01  0.22511068255E-01  0.00000000000E+00 0. -1.
     999901    1    3    3    0    0 -0.65300427193E-01 -0.11772118427E+00 -0.41570228901E-01  0.89120733107E+00  0.88000000000E+00 0.  1.
        -11    1    4    4    0    0  0.34062203769E-01  0.70874062127E-01  0.44026087950E-01  0.90121717411E-01  0.51100000000E-03 0. -1.
         11    1    4    4    0    0  0.13731909327E-01  0.36886968118E-01  0.75976225655E-02  0.40089883267E-01  0.51100000000E-03 0.  1.
</event>
<event>
 8    1  0.1093753E+005  0.1043930E+01  0.7957747E-01            NaN
         13   -1    0    0    0    0  0.00000000000E+00  0.00000000000E+00  0.74505805969E-08  0.10566000000E+00  0.10566000000E+00 0.  1.
     999900   -1    0    0    0    0 -0.00000000000E+00 -0.00000000000E+00 -0.74505805969E-08  0.93827000000E+00  0.93827000000E+00 0.  1.
     999902    2    1    2    0    0 -0.22432677724E-01 -0.54800533925E-03  0.79123593981E-02  0.10201364973E+01  0.10198589816E+01 0.  0.
     999903    2    3    3    0    0 -0.11568628623E+00 -0.57875742441E-01 -0.22603027941E-01  0.13282939499E+00  0.19995822446E-01 0.  0.
         14    1    1    2    0    0  0.22432677724E-01  0.54800533925E-03 -0.79123593981E-02  0.23793502705E-01  0.00000000000E+00 0. -1.
     999901    1    3    3    0    0  0.93253608508E-01  0.57327737101E-01  0.30515387339E-01  0.88730710231E+00  0.88000000000E+00 0. -1.
        -11    1    4    4    0    0 -0.71207144141E-01 -0.24881808289E-01 -0.10759983229E-01  0.76194488781E-01  0.51100000000E-03 0.  1.
         11    1    4    4    0    0 -0.44479142091E-01 -0.32993934152E-01 -0.11843044713E-01  0.56634906207E-01  0.51100000000E-03 0. -1.
</event>
<event>
 8    1  0.1093753E+005  0.1043930E+01  0.7957747E-01            NaN
         13   -1    0    0    0    0  0.00000000000E+00  0.00000000000E+00  0.74505805969E-08  0.10566000000E+00  0.10566000000E+00 0. -1.
     999900   -1    0    0    0    0 -0.00000000000E+00 -0.00000000000E+00 -0.74505805969E-08  0.93827000000E+00  0.93827000000E+00 0.  1.
     999902    2    1    2    0    0 -0.22720729942E-01 -0.72247897503E-02 -0.20420979148E-02  0.10200009524E+01  0.10197202281E+01 0.  0.
     999903    2    3    3    0    0 -0.97074769457E-01  0.67275472164E-01 -0.55899094256E-01  0.13209364400E+00  0.19352571593E-01 0.  0.
         14    1    1    2    0    0  0.22720729942E-01  0.72247897503E-02  0.20420979148E-02  0.23929047618E-01  0.00000000000E+00 0. -1.
     999901    1    3    3    0    0  0.74354039516E-01 -0.74500261915E-01  0.53856996341E-01  0.88790730838E+00  0.88000000000E+00 0.  1.
        -11    1    4    4    0    0 -0.13758226415E-01  0.17636461944E-01 -0.14375242615E-01  0.26594027623E-01  0.51100000000E-03 0. -1.
         11    1    4    4    0    0 -0.83316543043E-01  0.49639010221E-01 -0.41523851641E-01  0.10549961638E+00  0.51100000000E-03 0.  1.
</event>
<event>
 8    1  0.1093753E+005  0.1043930E+01  0.7957747E-01            NaN
         13   -1    0    0    0    0  0.00000000000E+00  0.00000000000E+00  0.74505805969E-08  0.10566000000E+00  0.10566000000E+00 0.  1.
     999900   -1    0    0    0    0 -0.00000000000E+00 -0.00000000000E+00 -0.74505805969E-08  0.93827000000E+00  0.93827000000E+00 0. -1.
     999902    2    1    2    0    0 -0.84008111132E-03  0.18830728110E-01 -0.71882376329E-02  0.10237564327E+01  0.10235576489E+01 0.  0.
     999903    2    3    3    0    0 -0.12317536520E+00  0.45787840736E-01 -0.22571403473E-01  0.13475179298E+00  0.19490523437E-01 0.  0.
         14    1    1    2    0    0  0.84008111132E-03 -0.18830728110E-01  0.71882376329E-02  0.20173567302E-01  0.00000000000E+00 0.  1.
     999901    1    3    3    0    0  0.12233528409E+00 -0.26957112626E-01  0.15383165840E-01  0.88900463972E+00  0.88000000000E+00 0.  1.
        -11    1    4    4    0    0 -0.95484708386E-01  0.31159469883E-01 -0.24448760841E-01  0.10337429626E+00  0.51100000000E-03 0.  1.
         11    1    4    4    0    0 -0.27690656816E-01  0.14628370854E-01  0.18773573683E-02  0.31377496720E-01  0.51100000000E-03 0. -1.
</event>
<event>
 8    1  0.1093753E+005  0.1043930E+01  0.7957747E-01            NaN
         13   -1    0    0    0    0  0.00000000000E+00  0.00000000000E+00  0.74505805969E-08  0.10566000000E+00  0.10566000000E+00 0. -1.
     999900   -1    0    0    0    0 -0.00000000000E+00 -0.00000000000E+00 -0.74505805969E-08  0.93827000000E+00  0.93827000000E+00 0.  1.
     999902    2    1    2    0    0  0.68142277306E-02 -0.15675927786E-01  0.16964681943E-01  0.10198474577E+01  0.10195630770E+01 0.  0.
     999903    2    3    3    0    0  0.51329896069E-01 -0.94999187814E-01  0.77069631263E-01  0.13311952350E+00  0.11021595082E-01 0.  0.
         14    1    1    2    0    0 -0.68142277306E-02  0.15675927786E-01 -0.16964681943E-01  0.24082542327E-01  0.00000000000E+00 0.  1.
     999901    1    3    3    0    0 -0.44515668339E-01  0.79323260028E-01 -0.60104949320E-01  0.88672793417E+00  0.88000000000E+00 0.  1.
        -11    1    4    4    0    0  0.23657857368E-01 -0.40519549899E-01  0.27129062776E-01  0.54201248208E-01  0.51100000000E-03 0. -1.
         11    1    4    4    0    0  0.27672038701E-01 -0.54479637915E-01  0.49940568487E-01  0.78918275292E-01  0.51100000000E-03 0.  1.
</event>
<event>
 8    1  0.1093753E+005  0.1043930E+01  0.7957747E-01            NaN
         13   -1    0    0    0    0  0.00000000000E+00  0.00000000000E+00  0.74505805969E-08  0.10566000000E+00  0.10566000000E+00 0. -1.
     999900   -1    0    0    0    0 -0.00000000000E+00 -0.00000000000E+00 -0.74505805969E-08  0.93827000000E+00  0.93827000000E+00 0.  1.
     999902    2    1    2    0    0  0.52085241375E-03  0.14659491704E-01  0.20845898074E-01  0.10184403266E+01  0.10181212970E+01 0.  0.
     999903    2    3    3    0    0  0.33060688830E-01  0.12088104537E+00  0.34746591237E-01  0.13134670769E+00  0.18422696430E-01 0.  0.
         14    1    1    2    0    0 -0.52085241375E-03 -0.14659491704E-01 -0.20845898074E-01  0.25489673414E-01  0.00000000000E+00 0.  1.
     999901    1    3    3    0    0 -0.32539836417E-01 -0.10622155366E+00 -0.13900693163E-01  0.88709361890E+00  0.88000000000E+00 0. -1.
        -11    1    4    4    0    0  0.18776724646E-01  0.40354256391E-01  0.74802935425E-02  0.45135876082E-01  0.51100000000E-03 0. -1.
         11    1    4    4    0    0  0.14283964185E-01  0.80526788975E-01  0.27266297694E-01  0.86210831607E-01  0.51100000000E-03 0.  1.
</event>
<event>
 8    1  0.1093753E+005  0.1043930E+01  0.7957747E-01            NaN
         13   -1    0    0    0    0  0.00000000000E+00  0.00000000000E+00  0.74505805969E-08  0.10566000000E+00  0.10566000000E+00 0. -1.
     999900   -1    0    0    0    0 -0.00000000000E+00 -0.00000000000E+00 -0.74505805969E-08  0.93827000000E+00  0.93827000000E+00 0. -1.
     999902    2    1    2    0    0 -0.15989354213E-01  0.65904881232E-02  0.15716594568E-01  0.10205611034E+01  0.10202935168E+01 0.  0.
     999903    2    3    3    0    0  0.12362647190E+00 -0.37579066864E-03 -0.29166193758E-01  0.12839768083E+00  0.18752381505E-01 0.  0.
         14    1    1    2    0    0  0.15989354213E-01 -0.65904881232E-02 -0.15716594568E-01  0.23368896565E-01  0.00000000000E+00 0.  1.
     999901    1    3    3    0    0 -0.13961582611E+00  0.69662787918E-02  0.44882788326E-01  0.89216342260E+00  0.88000000000E+00 0.  1.
        -11    1    4    4    0    0  0.89733904152E-01 -0.56837618599E-02 -0.14465336862E-01  0.91071322570E-01  0.51100000000E-03 0. -1.
         11    1    4    4    0    0  0.33892567747E-01  0.53079711912E-02 -0.14700856895E-01  0.37326358262E-01  0.51100000000E-03 0.  1.
</event>
<event>
 8    1  0.1093753E+005  0.1043930E+01  0.7957747E-01            NaN
         13   -1    0    0    0    0  0.00000000000E+00  0.00000000000E+00  0.74505805969E-08  0.10566000000E+00  0.10566000000E+00 0.  1.
     999900   -1    0    0    0    0 -0.00000000000E+00 -0.00000000000E+00 -0.74505805969E-08  0.93827000000E+00  0.93827000000E+00 0.  1.
     999902    2    1    2    0    0  0.11444860824E-01  0.18616281679E-01 -0.10230283055E-01  0.10198009827E+01  0.10195154903E+01 0.  0.
     999903    2    3    3    0    0  0.50634264361E-01  0.12012295656E+00 -0.20216645617E-01  0.13304332597E+00  0.17276006645E-01 0.  0.
         14    1    1    2    0    0 -0.11444860824E-01 -0.18616281679E-01  0.10230283055E-01  0.24129017266E-01  0.00000000000E+00 0.  1.
     999901    1    3    3    0    0 -0.39189403537E-01 -0.10150667488E+00  0.99863625623E-02  0.88675765677E+00  0.88000000000E+00 0. -1.
        -11    1    4    4    0    0  0.41632944680E-01  0.81418073789E-01 -0.18275928633E-01  0.93254895371E-01  0.51100000000E-03 0.  1.
         11    1    4    4    0    0  0.90013196816E-02  0.38704882768E-01 -0.19407169842E-02  0.39788430599E-01  0.51100000000E-03 0. -1.
</event>
<event>
 8    1  0.1093753E+005  0.1043930E+01  0.7957747E-01            NaN
         13   -1    0    0    0    0  0.00000000000E+00  0.00000000000E+00  0.74505805969E-08  0.10566000000E+00  0.10566000000E+00 0. -1.
     999900   -1    0    0    0    0 -0.00000000000E+00 -0.00000000000E+00 -0.74505805969E-08  0.93827000000E+00  0.93827000000E+00 0.  1.
     999902    2    1    2    0    0  0.62416913419E-02 -0.14610288767E-01 -0.18318493422E-01  0.10196815681E+01  0.10193932087E+01 0.  0.
     999903    2    3    3    0    0  0.88066937306E-01  0.92477275350E-01 -0.55465812586E-02  0.12932981794E+00  0.19687695178E-01 0.  0.
         14    1    1    2    0    0 -0.62416913419E-02  0.14610288767E-01  0.18318493422E-01  0.24248431907E-01  0.00000000000E+00 0.  1.
     999901    1    3    3    0    0 -0.81825245964E-01 -0.10708756412E+00 -0.12771912164E-01  0.89035175016E+00  0.88000000000E+00 0.  1.
        -11    1    4    4    0    0  0.32283433494E-01  0.48076267612E-01 -0.25117122473E-02  0.57966519691E-01  0.51100000000E-03 0.  1.
         11    1    4    4    0    0  0.55783503812E-01  0.44401007738E-01 -0.30348690113E-02  0.71363298246E-01  0.51100000000E-03 0. -1.
</event>
<event>
 8    1  0.1093753E+005  0.1043930E+01  0.7957747E-01            NaN
         13   -1    0    0    0    0  0.00000000000E+00  0.00000000000E+00  0.74505805969E-08  0.10566000000E+00  0.10566000000E+00 0.  1.
     999900   -1    0    0    0    0 -0.00000000000E+00 -0.00000000000E+00 -0.74505805969E-08  0.93827000000E+00  0.93827000000E+00 0.  1.
     999902    2    1    2    0    0  0.47466067827E-02  0.15486518970E-01  0.39361019337E-02  0.10272610035E+01  0.10271257537E+01 0.  0.
     999903    2    3    3    0    0  0.12723914599E-01  0.10414039826E+00  0.88647029245E-01  0.13872339093E+00  0.19461830478E-01 0.  0.
         14    1    1    2    0    0 -0.47466067827E-02 -0.15486518970E-01 -0.39361019337E-02  0.16668996496E-01  0.00000000000E+00 0. -1.
     999901    1    3    3    0    0 -0.79773078165E-02 -0.88653879285E-01 -0.84710927311E-01  0.88853761257E+00  0.88000000000E+00 0.  1.
        -11    1    4    4    0    0 -0.37212825987E-02  0.31705180186E-01  0.20672503974E-01  0.38035245975E-01  0.51100000000E-03 0. -1.
         11    1    4    4    0    0  0.16445197198E-01  0.72435218069E-01  0.67974525271E-01  0.10068814495E+00  0.51100000000E-03 0.  1.
</event>
<event>
 8    1  0.1093753E+005  0.1043930E+01  0.7957747E-01            NaN
         13   -1    0    0    0    0  0.00000000000E+00  0.00000000000E+00  0.74505805969E-08  0.10566000000E+00  0.10566000000E+00 0.  1.
     999900   -1    0    0    0    0 -0.00000000000E+00 -0.00000000000E+00 -0.74505805969E-08  0.93827000000E+00  0.93827000000E+00 0. -1.
     999902    2    1    2    0    0  0.14954975934E-01 -0.16885665561E-01  0.63343928852E-02  0.10205013522E+01  0.10202323795E+01 0.  0.
     999903    2    3    3    0    0 -0.10972148282E+00  0.51462520157E-01  0.41175933177E-01  0.12840851686E+00  0.10300240512E-01 0.  0.
         14    1    1    2    0    0 -0.14954975934E-01  0.16885665561E-01 -0.63343928852E-02  0.23428647845E-01  0.00000000000E+00 0.  1.
     999901    1    3    3    0    0  0.12467645876E+00 -0.68348185718E-01 -0.34841540292E-01  0.89209283530E+00  0.88000000000E+00 0. -1.
        -11    1    4    4    0    0 -0.46803633088E-01  0.16552342349E-01  0.18089577383E-01  0.52839890598E-01  0.51100000000E-03 0.  1.
         11    1    4    4    0    0 -0.62917849736E-01  0.34910177808E-01  0.23086355794E-01  0.75568626260E-01  0.51100000000E-03 0. -1.
</event>
<event>
 8    1  0.1093753E+005  0.1043930E+01  0.7957747E-01            NaN
         13   -1    0    0    0    0  0.00000000000E+00  0.00000000000E+00  0.74505805969E-08  0.10566000000E+00  0.10566000000E+00 0.  1.
     999900   -1    0    0    0    0 -0.00000000000E+00 -0.00000000000E+00 -0.74505805969E-08  0.93827000000E+00  0.93827000000E+00 0. -1.
     999902    2    1    2    0    0  0.17079031889E-01 -0.10456147120E-01 -0.12737062768E-01  0.10201969616E+01  0.10199208711E+01 0.  0.
     999903    2    3    3    0    0 -0.10038102308E+00  0.74986908410E-01  0.15533442682E-01  0.12784243469E+00  0.20075209578E-01 0.  0.
         14    1    1    2    0    0 -0.17079031889E-01  0.10456147120E-01  0.12737062768E-01  0.23733038382E-01  0.00000000000E+00 0.  1.
     999901    1    3    3    0    0  0.11746005496E+00 -0.85443055530E-01 -0.28270505450E-01  0.89235452693E+00  0.88000000000E+00 0. -1.
        -11    1    4    4    0    0 -0.17920046705E-01  0.46789692890E-02  0.20936043958E-02  0.18645780431E-01  0.51100000000E-03 0. -1.
         11    1    4    4    0    0 -0.82460976370E-01  0.70307939121E-01  0.13439838286E-01  0.10919665426E+00  0.51100000000E-03 0.  1.
</event>
<event>
 8    1  0.1093753E+005  0.1043930E+01  0.7957747E-01            NaN
         13   -1    0    0    0    0  0.00000000000E+00  0.00000000000E+00  0.74505805969E-08  0.10566000000E+00  0.10566000000E+00 0.  1.
     999900   -1    0    0    0    0 -0.00000000000E+00 -0.00000000000E+00 -0.74505805969E-08  0.93827000000E+00  0.93827000000E+00 0.  1.
     999902    2    1    2    0    0  0.11018541168E-01 -0.15920225447E-01  0.13269036328E-01  0.10204581200E+01  0.10201881422E+01 0.  0.
     999903    2    3    3    0    0 -0.11031050830E+00  0.59981901142E-01  0.20295223630E-01  0.12886895539E+00  0.20714122108E-01 0.  0.
         14    1    1    2    0    0 -0.11018541168E-01  0.15920225447E-01 -0.13269036328E-01  0.23471880045E-01  0.00000000000E+00 0. -1.
     999901    1    3    3    0    0  0.12132904947E+00 -0.75902126589E-01 -0.70261873024E-02  0.89158916457E+00  0.88000000000E+00 0. -1.
        -11    1    4    4    0    0 -0.55692615002E-01  0.25661471077E-01  0.26551947009E-03  0.61322998012E-01  0.51100000000E-03 0.  1.
         11    1    4    4    0    0 -0.54617893298E-01  0.34320430064E-01  0.20029704160E-01  0.67545957376E-01  0.51100000000E-03 0. -1.
</event>
<event>
 8    1  0.1093753E+005  0.1043930E+01  0.7957747E-01            NaN
         13   -1    0    0    0    0  0.00000000000E+00  0.00000000000E+00  0.74505805969E-08  0.10566000000E+00  0.10566000000E+00 0.  1.
     999900   -1    0    0    0    0 -0.00000000000E+00 -0.00000000000E+00 -0.74505805969E-08  0.93827000000E+00  0.93827000000E+00 0. -1.
     999902    2    1    2    0    0  0.17001926946E-02 -0.17779729419E-01  0.14459690293E-01  0.10209497459E+01  0.10206910853E+01 0.  0.
     999903    2    3    3    0    0  0.12446990986E+00 -0.16324588464E-01 -0.32498329732E-01  0.13118597025E+00  0.19858668246E-01 0.  0.
         14    1    1    2    0    0 -0.17001926946E-02  0.17779729419E-01 -0.14459690293E-01  0.22980254062E-01  0.00000000000E+00 0.  1.
     999901    1    3    3    0    0 -0.12276971717E+00 -0.14551409553E-02  0.46958020025E-01  0.88976377569E+00  0.88000000000E+00 0. -1.
        -11    1    4    4    0    0  0.68590341834E-01 -0.17944849477E-01 -0.13758586866E-01  0.72223351136E-01  0.51100000000E-03 0.  1.
         11    1    4    4    0    0  0.55879568027E-01  0.16202610131E-02 -0.18739742866E-01  0.58962619110E-01  0.51100000000E-03 0. -1.
</event>
<event>
 8    1  0.1093753E+005  0.1043930E+01  0.7957747E-01            NaN
         13   -1    0    0    0    0  0.00000000000E+00  0.00000000000E+00  0.74505805969E-08  0.10566000000E+00  0.10566000000E+00 0. -1.
     999900   -1    0    0    0    0 -0.00000000000E+00 -0.00000000000E+00 -0.74505805969E-08  0.93827000000E+00  0.93827000000E+00 0. -1.
     999902    2    1    2    0    0 -0.82276598447E-02  0.19149711502E-01 -0.89221314935E-02  0.10212582055E+01  0.10210065191E+01 0.  0.
     999903    2    3    3    0    0  0.54987329593E-01  0.51613365759E-01  0.10574939021E+00  0.13097758587E+00  0.16871530143E-01 0.  0.
         14    1    1    2    0    0  0.82276598447E-02 -0.19149711502E-01  0.89221314935E-02  0.22671794537E-01  0.00000000000E+00 0. -1.
     999901    1    3    3    0    0 -0.63214989438E-01 -0.32463654257E-01 -0.11467152170E+00  0.89028061960E+00  0.88000000000E+00 0.  1.
        -11    1    4    4    0    0  0.17616822831E-01  0.23178298637E-01  0.29666824374E-01  0.41568829233E-01  0.51100000000E-03 0.  1.
         11    1    4    4    0    0  0.37370506762E-01  0.28435067122E-01  0.76082565835E-01  0.89408756635E-01  0.51100000000E-03 0. -1.
</event>
<event>
 8    1  0.1093753E+005  0.1043930E+01  0.7957747E-01            NaN
         13   -1    0    0    0    0  0.00000000000E+00  0.00000000000E+00  0.74505805969E-08  0.10566000000E+00  0.10566000000E+00 0.  1.
     999900   -1    0    0    0    0 -0.00000000000E+00 -0.00000000000E+00 -0.74505805969E-08  0.93827000000E+00  0.93827000000E+00 0.  1.
     999902    2    1    2    0    0 -0.19256018605E-01 -0.45353051879E-02 -0.13637831574E-01  0.10199018146E+01  0.10196187315E+01 0.  0.
     999903    2    3    3    0    0  0.89892965716E-01 -0.88645443458E-01  0.17098982480E-01  0.12864833329E+00  0.17867806929E-01 0.  0.
         14    1    1    2    0    0  0.19256018605E-01  0.45353051879E-02  0.13637831574E-01  0.24028185443E-01  0.00000000000E+00 0. -1.
     999901    1    3    3    0    0 -0.10914898432E+00  0.84110138270E-01 -0.30736814054E-01  0.89125348127E+00  0.88000000000E+00 0. -1.
        -11    1    4    4    0    0  0.58979175136E-01 -0.60964694239E-01  0.19645581991E-01  0.87071505420E-01  0.51100000000E-03 0. -1.
         11    1    4    4    0    0  0.30913790581E-01 -0.27680749220E-01 -0.25465995108E-02  0.41576827867E-01  0.51100000000E-03 0.  1.
</event>
<event>
 8    1  0.1093753E+005  0.1043930E+01  0.7957747E-01            NaN
         13   -1    0    0    0    0  0.00000000000E+00  0.00000000000E+00  0.74505805969E-08  0.10566000000E+00  0.10566000000E+00 0. -1.
     999900   -1    0    0    0    0 -0.00000000000E+00 -0.00000000000E+00 -0.74505805969E-08  0.93827000000E+00  0.93827000000E+00 0. -1.
     999902    2    1    2    0    0 -0.99124403188E-02  0.12151593911E-01  0.17676142787E-01  0.10203002786E+01  0.10200266148E+01 0.  0.
     999903    2    3    3    0    0  0.46992124762E-01 -0.11554805708E+00 -0.22375897720E-01  0.12836446462E+00  0.20424046926E-01 0.  0.
         14    1    1    2    0    0  0.99124403188E-02 -0.12151593911E-01 -0.17676142787E-01  0.23629721359E-01  0.00000000000E+00 0.  1.
     999901    1    3    3    0    0 -0.56904565081E-01  0.12769965099E+00  0.40052040507E-01  0.89193581402E+00  0.88000000000E+00 0.  1.
        -11    1    4    4    0    0  0.77191465005E-02 -0.33358934418E-01 -0.13618781374E-01  0.36852897516E-01  0.51100000000E-03 0.  1.
         11    1    4    4    0    0  0.39272978262E-01 -0.82189122663E-01 -0.87571163460E-02  0.91511567101E-01  0.51100000000E-03 0. -1.
</event>
<event>
 8    1  0.1093753E+005  0.1043930E+01  0.7957747E-01            NaN
         13   -1    0    0    0    0  0.00000000000E+00  0.00000000000E+00  0.74505805969E-08  0.10566000000E+00  0.10566000000E+00 0. -1.
     999900   -1    0    0    0    0 -0.00000000000E+00 -0.00000000000E+00 -0.74505805969E-08  0.93827000000E+00  0.93827000000E+00 0. -1.
     999902    2    1    2    0    0  0.46943938786E-02  0.16317013055E-01 -0.11012447441E-01  0.10236925039E+01  0.10234924457E+01 0.  0.
     999903    2    3    3    0    0  0.22689436692E-01 -0.14806050579E-01  0.12775089127E+00  0.13209409049E+00  0.19862750335E-01 0.  0.
         14    1    1    2    0    0 -0.46943938786E-02 -0.16317013055E-01  0.11012447441E-01  0.20237496079E-01  0.00000000000E+00 0. -1.
     999901    1    3    3    0    0 -0.17995042813E-01  0.31123063633E-01 -0.13876333871E+00  0.89159841343E+00  0.88000000000E+00 0. -1.
        -11    1    4    4    0    0  0.23288707017E-01 -0.15483289334E-01  0.88185732153E-01  0.92515299273E-01  0.51100000000E-03 0. -1.
         11    1    4    4    0    0 -0.59927032457E-03  0.67723875518E-03  0.39565159120E-01  0.39578791221E-01  0.51100000000E-03 0.  1.
</event>
<event>
 8    1  0.1093753E+005  0.1043930E+01  0.7957747E-01            NaN
         13   -1    0    0    0    0  0.00000000000E+00  0.00000000000E+00  0.74505805969E-08  0.10566000000E+00  0.10566000000E+00 0.  1.
     999900   -1    0    0    0    0 -0.00000000000E+00 -0.00000000000E+00 -0.74505805969E-08  0.93827000000E+00  0.93827000000E+00 0. -1.
     999902    2    1    2    0    0  0.15608941706E-01 -0.47274249019E-02 -0.17195854096E-01  0.10202301054E+01  0.10199547945E+01 0.  0.
     999903    2    3    3    0    0  0.51271981750E-01 -0.11828748008E+00 -0.87974209889E-02  0.13217702574E+00  0.27796177132E-01 0.  0.
         14    1    1    2    0    0 -0.15608941706E-01  0.47274249019E-02  0.17195854096E-01  0.23699894630E-01  0.00000000000E+00 0.  1.
     999901    1    3    3    0    0 -0.35663040044E-01  0.11356005517E+00 -0.83984331067E-02  0.88805307963E+00  0.88000000000E+00 0. -1.
        -11    1    4    4    0    0  0.20510360927E-01 -0.35068895546E-01 -0.14822956722E-01  0.43249086778E-01  0.51100000000E-03 0. -1.
         11    1    4    4    0    0  0.30761620823E-01 -0.83218584529E-01  0.60255357330E-02  0.88927938965E-01  0.51100000000E-03 0.  1.
</event>
<event>
 8    1  0.1093753E+005  0.1043930E+01  0.7957747E-01            NaN
         13   -1    0    0    0    0  0.00000000000E+00  0.00000000000E+00  0.74505805969E-08  0.10566000000E+00  0.10566000000E+00 0.  1.
     999900   -1    0    0    0    0 -0.00000000000E+00 -0.00000000000E+00 -0.74505805969E-08  0.93827000000E+00  0.93827000000E+00 0.  1.
     999902    2    1    2    0    0 -0.21925755420E-01 -0.39271912779E-02  0.58248881783E-02  0.10209062969E+01  0.10206466461E+01 0.  0.
     999903    2    3    3    0    0 -0.29844400229E-01 -0.84316820139E-01 -0.94313204960E-01  0.13155100510E+00  0.20265042034E-01 0.  0.
         14    1    1    2    0    0  0.21925755420E-01  0.39271912779E-02 -0.58248881783E-02  0.23023703099E-01  0.00000000000E+00 0.  1.
     999901    1    3    3    0    0  0.79186448091E-02  0.80389628861E-01  0.10013809314E+00  0.88935529180E+00  0.88000000000E+00 0. -1.
        -11    1    4    4    0    0 -0.24517556587E-01 -0.63714466446E-01 -0.82916676674E-01  0.10740614604E+00  0.51100000000E-03 0. -1.
         11    1    4    4    0    0 -0.53268436421E-02 -0.20602353693E-01 -0.11396528286E-01  0.24144859056E-01  0.51100000000E-03 0.  1.
</event>
<event>
 8    1  0.1093753E+005  0.1043930E+01  0.7957747E-01            NaN
         13   -1    0    0    0    0  0.00000000000E+00  0.00000000000E+00  0.74505805969E-08  0.10566000000E+00  0.10566000000E+00 0. -1.
     999900   -1    0    0    0    0 -0.00000000000E+00 -0.00000000000E+00 -0.74505805969E-08  0.93827000000E+00  0.93827000000E+00 0. -1.
     999902    2    1    2    0    0  0.94855138533E-02  0.12944334966E-01 -0.18439756664E-01  0.10194850536E+01  0.10191919441E+01 0.  0.
     999903    2    3    3    0    0 -0.11305861657E+00  0.39644772364E-01  0.41936442832E-01  0.12854439183E+00  0.20274039442E-01 0.  0.
         14    1    1    2    0    0 -0.94855138533E-02 -0.12944334966E-01  0.18439756664E-01  0.24444946443E-01  0.00000000000E+00 0. -1.
     999901    1    3    3    0    0  0.12254413043E+00 -0.26700437398E-01 -0.60376199497E-01  0.89094066173E+00  0.88000000000E+00 0. -1.
        -11    1    4    4    0    0 -0.40698850407E-01  0.21764905630E-01  0.88662495870E-02  0.46999777067E-01  0.51100000000E-03 0.  1.
         11    1    4    4    0    0 -0.72359766166E-01  0.17879866734E-01  0.33070193245E-01  0.81544614760E-01  0.51100000000E-03 0. -1.
</event>
<event>
 8    1  0.1093753E+005  0.1043930E+01  0.7957747E-01            NaN
         13   -1    0    0    0    0  0.00000000000E+00  0.00000000000E+00  0.74505805969E-08  0.10566000000E+00  0.10566000000E+00 0.  1.
     999900   -1    0    0    0    0 -0.00000000000E+00 -0.00000000000E+00 -0.74505805969E-08  0.93827000000E+00  0.93827000000E+00 0.  1.
     999902    2    1    2    0    0  0.13466706201E-01 -0.11920817103E-01  0.13942688182E-01  0.10211735370E+01  0.10209199459E+01 0.  0.
     999903    2    3    3    0    0  0.52775451237E-01  0.10698905795E+00  0.50248696371E-01  0.13156527371E+00  0.23507083686E-01 0.  0.
         14    1    1    2    0    0 -0.13466706201E-01  0.11920817103E-01 -0.13942688182E-01  0.22756463039E-01  0.00000000000E+00 0.  1.
     999901    1    3    3    0    0 -0.39308745036E-01 -0.11890987506E+00 -0.36306008189E-01  0.88960826326E+00  0.88000000000E+00 0.  1.
        -11    1    4    4    0    0  0.29562301519E-01  0.34308906155E-01  0.18407909581E-01  0.48889088443E-01  0.51100000000E-03 0.  1.
         11    1    4    4    0    0  0.23213149718E-01  0.72680151798E-01  0.31840786789E-01  0.82676185263E-01  0.51100000000E-03 0. -1.
</event>
<event>
 8    1  0.1093753E+005  0.1043930E+01  0.7957747E-01            NaN
         13   -1    0    0    0    0  0.00000000000E+00  0.00000000000E+00  0.74505805969E-08  0.10566000000E+00  0.10566000000E+00 0.  1.
     999900   -1    0    0    0    0 -0.00000000000E+00 -0.00000000000E+00 -0.74505805969E-08  0.93827000000E+00  0.93827000000E+00 0.  1.
     999902    2    1    2    0    0  0.51808179680E-02 -0.11936612932E-01  0.20344259674E-01  0.10197802069E+01  0.10194942167E+01 0.  0.
     999903    2    3    3    0    0 -0.80766073944E-01 -0.37802387968E-01 -0.90461668336E-01  0.12830173820E+00  0.18051131555E-01 0.  0.
         14    1    1    2    0    0 -0.51808179680E-02  0.11936612932E-01 -0.20344259674E-01  0.24149793059E-01  0.00000000000E+00 0. -1.
     999901    1    3    3    0    0  0.85946891912E-01  0.25865775036E-01  0.11080592801E+00  0.89147846874E+00  0.88000000000E+00 0. -1.
        -11    1    4    4    0    0 -0.54809908714E-01 -0.34417564510E-01 -0.61928864062E-01  0.89577565076E-01  0.51100000000E-03 0.  1.
         11    1    4    4    0    0 -0.25956165230E-01 -0.33848234577E-02 -0.28532804275E-01  0.38724173123E-01  0.51100000000E-03 0. -1.
</event>
<event>
 8    1  0.1093753E+005  0.1043930E+01  0.7957747E-01            NaN
         13   -1    0    0    0    0  0.00000000000E+00  0.00000000000E+00  0.74505805969E-08  0.10566000000E+00  0.10566000000E+00 0. -1.
     999900   -1    0    0    0    0 -0.00000000000E+00 -0.00000000000E+00 -0.74505805969E-08  0.93827000000E+00  0.93827000000E+00 0. -1.
     999902    2    1    2    0    0  0.20386841087E-02  0.56554074239E-02 -0.13177938474E-01  0.10294455971E+01  0.10293436935E+01 0.  0.
     999903    2    3    3    0    0  0.60011099305E-01  0.26309590522E-01 -0.12270156110E+00  0.14052331693E+00  0.19939982764E-01 0.  0.
         14    1    1    2    0    0 -0.20386841087E-02 -0.56554074239E-02  0.13177938474E-01  0.14484402937E-01  0.00000000000E+00 0. -1.
     999901    1    3    3    0    0 -0.57972415196E-01 -0.20654183098E-01  0.10952362262E+00  0.88892228013E+00  0.88000000000E+00 0.  1.
        -11    1    4    4    0    0  0.13823437696E-01  0.15688369647E-01 -0.32998553946E-01  0.39068888587E-01  0.51100000000E-03 0.  1.
         11    1    4    4    0    0  0.46187661609E-01  0.10621220875E-01 -0.89703007150E-01  0.10145442834E+00  0.51100000000E-03 0. -1.
</event>
<event>
 8    1  0.1093753E+005  0.1043930E+01  0.7957747E-01            NaN
         13   -1    0    0    0    0  0.00000000000E+00  0.00000000000E+00  0.74505805969E-08  0.10566000000E+00  0.10566000000E+00 0. -1.
     999900   -1    0    0    0    0 -0.00000000000E+00 -0.00000000000E+00 -0.74505805969E-08  0.93827000000E+00  0.93827000000E+00 0. -1.
     999902    2    1    2    0    0  0.16459020144E-01 -0.16750211559E-01 -0.32964700204E-02  0.10202163827E+01  0.10199407492E+01 0.  0.
     999903    2    3    3    0    0 -0.25696277423E-01 -0.99348793878E-01  0.79670216781E-01  0.13146272389E+00  0.20115238298E-01 0.  0.
         14    1    1    2    0    0 -0.16459020144E-01  0.16750211559E-01  0.32964700204E-02  0.23713617311E-01  0.00000000000E+00 0.  1.
     999901    1    3    3    0    0  0.42155297567E-01  0.82598582319E-01 -0.82966686801E-01  0.88875365880E+00  0.88000000000E+00 0. -1.
        -11    1    4    4    0    0 -0.28829175491E-01 -0.82645111715E-01  0.65386044757E-01  0.10925626673E+00  0.51100000000E-03 0.  1.
         11    1    4    4    0    0  0.31328980674E-02 -0.16703682163E-01  0.14284172024E-01  0.22206457158E-01  0.51100000000E-03 0. -1.
</event>
<event>
 8    1  0.1093753E+005  0.1043930E+01  0.7957747E-01            NaN
         13   -1    0    0    0    0  0.00000000000E+00  0.00000000000E+00  0.74505805969E-08  0.10566000000E+00  0.10566000000E+00 0. -1.
     999900   -1    0    0    0    0 -0.00000000000E+00 -0.00000000000E+00 -0.74505805969E-08  0.93827000000E+00  0.93827000000E+00 0. -1.
     999902    2    1    2    0    0 -0.68120562342E-02 -0.18726471491E-01  0.13825962274E-01  0.10196762977E+01  0.10193878113E+01 0.  0.
     999903    2    3    3    0    0 -0.73071157927E-01  0.43837983646E-01 -0.93078042083E-01  0.12853486906E+00  0.24423916890E-01 0.  0.
         14    1    1    2    0    0  0.68120562342E-02  0.18726471491E-01 -0.13825962274E-01  0.24253702345E-01  0.00000000000E+00 0.  1.
     999901    1    3    3    0    0  0.66259101693E-01 -0.62564455137E-01  0.10690400436E+00  0.89114142859E+00  0.88000000000E+00 0.  1.
        -11    1    4    4    0    0 -0.25766938434E-01  0.11000902263E-01 -0.15829659697E-01  0.32183756990E-01  0.51100000000E-03 0.  1.
         11    1    4    4    0    0 -0.47304219493E-01  0.32837081383E-01 -0.77248382386E-01  0.96351112074E-01  0.51100000000E-03 0. -1.
</event>
<event>
 8    1  0.1093753E+005  0.1043930E+01  0.7957747E-01            NaN
         13   -1    0    0    0    0  0.00000000000E+00  0.00000000000E+00  0.74505805969E-08  0.10566000000E+00  0.10566000000E+00 0. -1.
     999900   -1    0    0    0    0 -0.00000000000E+00 -0.00000000000E+00 -0.74505805969E-08  0.93827000000E+00  0.93827000000E+00 0.  1.
     999902    2    1    2    0    0 -0.10551208560E-01 -0.20743626383E-01  0.61879869748E-02  0.10198485295E+01  0.10195641745E+01 0.  0.
     999903    2    3    3    0    0 -0.37328850603E-01 -0.11573389563E-01 -0.12242433629E+00  0.13004952691E+00  0.19944294949E-01 0.  0.
         14    1    1    2    0    0  0.10551208560E-01  0.20743626383E-01 -0.61879869748E-02  0.24081470478E-01  0.00000000000E+00 0.  1.
     999901    1    3    3    0    0  0.26777642044E-01 -0.91702368206E-02  0.12861232326E+00  0.88979900261E+00  0.88000000000E+00 0. -1.
        -11    1    4    4    0    0 -0.13184510215E-01  0.43440580224E-02 -0.27389179694E-01  0.30710428766E-01  0.51100000000E-03 0.  1.
         11    1    4    4    0    0 -0.24144340388E-01 -0.15917447585E-01 -0.95035156591E-01  0.99339098142E-01  0.51100000000E-03 0. -1.
</event>
<event>
 8    1  0.1093753E+005  0.1043930E+01  0.7957747E-01            NaN
         13   -1    0    0    0    0  0.00000000000E+00  0.00000000000E+00  0.74505805969E-08  0.10566000000E+00  0.10566000000E+00 0. -1.
     999900   -1    0    0    0    0 -0.00000000000E+00 -0.00000000000E+00 -0.74505805969E-08  0.93827000000E+00  0.93827000000E+00 0.  1.
     999902    2    1    2    0    0 -0.12632389180E-02 -0.50393001134E-02 -0.23234640190E-01  0.10201216228E+01  0.10198437560E+01 0.  0.
     999903    2    3    3    0    0  0.65891900947E-01 -0.91095068670E-01 -0.66646040114E-01  0.13231536146E+00  0.20630222196E-01 0.  0.
         14    1    1    2    0    0  0.12632389180E-02  0.50393001134E-02  0.23234640190E-01  0.23808377159E-01  0.00000000000E+00 0. -1.
     999901    1    3    3    0    0 -0.67155139865E-01  0.86055768556E-01  0.43411399924E-01  0.88780626139E+00  0.88000000000E+00 0. -1.
        -11    1    4    4    0    0  0.47166502834E-01 -0.49707744023E-01 -0.34969090750E-01  0.76932679885E-01  0.51100000000E-03 0. -1.
         11    1    4    4    0    0  0.18725398113E-01 -0.41387324647E-01 -0.31676949364E-01  0.55382681570E-01  0.51100000000E-03 0.  1.
</event>
<event>
 8    1  0.1093753E+005  0.1043930E+01  0.7957747E-01            NaN
         13   -1    0    0    0    0  0.00000000000E+00  0.00000000000E+00  0.74505805969E-08  0.10566000000E+00  0.10566000000E+00 0. -1.
     999900   -1    0    0    0    0 -0.00000000000E+00 -0.00000000000E+00 -0.74505805969E-08  0.93827000000E+00  0.93827000000E+00 0. -1.
     999902    2    1    2    0    0  0.17273639680E-01  0.12028249983E-01  0.98883368065E-02  0.10206741055E+01  0.10204091302E+01 0.  0.
     999903    2    3    3    0    0 -0.17444113770E-01 -0.47920936399E-01 -0.11674730013E+00  0.12891415353E+00  0.19703137822E-01 0.  0.
         14    1    1    2    0    0 -0.17273639680E-01 -0.12028249983E-01 -0.98883368065E-02  0.23255894527E-01  0.00000000000E+00 0.  1.
     999901    1    3    3    0    0  0.34717753450E-01  0.59949186382E-01  0.12663563694E+00  0.89175995195E+00  0.88000000000E+00 0.  1.
        -11    1    4    4    0    0 -0.97639967588E-02 -0.16360046061E-01 -0.24031487652E-01  0.30671815395E-01  0.51100000000E-03 0.  1.
         11    1    4    4    0    0 -0.76801170111E-02 -0.31560890338E-01 -0.92715812483E-01  0.98242338131E-01  0.51100000000E-03 0. -1.
</event>
<event>
 8    1  0.1093753E+005  0.1043930E+01  0.7957747E-01            NaN
         13   -1    0    0    0    0  0.00000000000E+00  0.00000000000E+00  0.74505805969E-08  0.10566000000E+00  0.10566000000E+00 0.  1.
     999900   -1    0    0    0    0 -0.00000000000E+00 -0.00000000000E+00 -0.74505805969E-08  0.93827000000E+00  0.93827000000E+00 0. -1.
     999902    2    1    2    0    0  0.10863104931E-01 -0.19629232040E-01 -0.51808433485E-02  0.10209049064E+01  0.10206452238E+01 0.  0.
     999903    2    3    3    0    0  0.23969328063E-01 -0.12358185775E+00  0.39783000566E-01  0.13354947096E+00  0.20143728748E-01 0.  0.
         14    1    1    2    0    0 -0.10863104931E-01  0.19629232040E-01  0.51808433485E-02  0.23025093638E-01  0.00000000000E+00 0.  1.
     999901    1    3    3    0    0 -0.13106223132E-01  0.10395262571E+00 -0.44963843915E-01  0.88735543540E+00  0.88000000000E+00 0.  1.
        -11    1    4    4    0    0  0.26525914986E-01 -0.11321598865E+00  0.32942315692E-01  0.12085918060E+00  0.51100000000E-03 0.  1.
         11    1    4    4    0    0 -0.25565869230E-02 -0.10365869100E-01  0.68406848743E-02  0.12690290361E-01  0.51100000000E-03 0. -1.
</event>
<event>
 8    1  0.1093753E+005  0.1043930E+01  0.7957747E-01            NaN
         13   -1    0    0    0    0  0.00000000000E+00  0.00000000000E+00  0.74505805969E-08  0.10566000000E+00  0.10566000000E+00 0.  1.
     999900   -1    0    0    0    0 -0.00000000000E+00 -0.00000000000E+00 -0.74505805969E-08  0.93827000000E+00  0.93827000000E+00 0. -1.
     999902    2    1    2    0    0  0.15900489977E-01  0.13696864878E-01  0.12930327811E-01  0.10192799885E+01  0.10189818801E+01 0.  0.
     999903    2    3    3    0    0 -0.10846482991E-02 -0.12191265699E+00  0.35237003876E-01  0.12845114685E+00  0.19853923720E-01 0.  0.
         14    1    1    2    0    0 -0.15900489977E-01 -0.13696864878E-01 -0.12930327811E-01  0.24650011487E-01  0.00000000000E+00 0. -1.
     999901    1    3    3    0    0  0.16985138276E-01  0.13560952187E+00 -0.22306676065E-01  0.89082884166E+00  0.88000000000E+00 0.  1.
        -11    1    4    4    0    0  0.35127114978E-02 -0.36965779549E-01  0.22400809828E-02  0.37203320867E-01  0.51100000000E-03 0.  1.
         11    1    4    4    0    0 -0.45973597969E-02 -0.84946877445E-01  0.32996922894E-01  0.91247825981E-01  0.51100000000E-03 0. -1.
</event>
<event>
 8    1  0.1093753E+005  0.1043930E+01  0.7957747E-01            NaN
         13   -1    0    0    0    0  0.00000000000E+00  0.00000000000E+00  0.74505805969E-08  0.10566000000E+00  0.10566000000E+00 0. -1.
     999900   -1    0    0    0    0 -0.00000000000E+00 -0.00000000000E+00 -0.74505805969E-08  0.93827000000E+00  0.93827000000E+00 0.  1.
     999902    2    1    2    0    0 -0.11991401597E-02  0.23726333037E-01 -0.36453905796E-03  0.10201705870E+01  0.10198938753E+01 0.  0.
     999903    2    3    3    0    0  0.81828390119E-01 -0.21359658068E-01 -0.96345193015E-01  0.12992421476E+00  0.21113619838E-01 0.  0.
         14    1    1    2    0    0  0.11991401597E-02 -0.23726333037E-01  0.36453905796E-03  0.23759412982E-01  0.00000000000E+00 0. -1.
     999901    1    3    3    0    0 -0.83027530278E-01  0.45085991105E-01  0.95980653957E-01  0.89024637225E+00  0.88000000000E+00 0. -1.
        -11    1    4    4    0    0  0.46701866767E-01 -0.22869510759E-01 -0.57527416497E-01  0.77548331070E-01  0.51100000000E-03 0. -1.
         11    1    4    4    0    0  0.35126523352E-01  0.15098526908E-02 -0.38817776518E-01  0.52375883694E-01  0.51100000000E-03 0.  1.
</event>
<event>
 8    1  0.1093753E+005  0.1043930E+01  0.7957747E-01            NaN
         13   -1    0    0    0    0  0.00000000000E+00  0.00000000000E+00  0.74505805969E-08  0.10566000000E+00  0.10566000000E+00 0.  1.
     999900   -1    0    0    0    0 -0.00000000000E+00 -0.00000000000E+00 -0.74505805969E-08  0.93827000000E+00  0.93827000000E+00 0. -1.
     999902    2    1    2    0    0  0.16068138387E-01 -0.19132484274E-01 -0.27466575332E-02  0.10187947428E+01  0.10184846326E+01 0.  0.
     999903    2    3    3    0    0 -0.44045893219E-01 -0.32100552443E-01  0.11506267472E+00  0.12881670582E+00  0.19591794397E-01 0.  0.
         14    1    1    2    0    0 -0.16068138387E-01  0.19132484274E-01  0.27466575332E-02  0.25135257176E-01  0.00000000000E+00 0.  1.
     999901    1    3    3    0    0  0.60114031606E-01  0.12968068170E-01 -0.11780933225E+00  0.88997803701E+00  0.88000000000E+00 0. -1.
        -11    1    4    4    0    0 -0.24167922561E-01 -0.62937570738E-02  0.57121413708E-01  0.62344341235E-01  0.51100000000E-03 0.  1.
         11    1    4    4    0    0 -0.19877970658E-01 -0.25806795369E-01  0.57941261011E-01  0.66472364583E-01  0.51100000000E-03 0. -1.
</event>
<event>
 8    1  0.1093753E+005  0.1043930E+01  0.7957747E-01            NaN
         13   -1    0    0    0    0  0.00000000000E+00  0.00000000000E+00  0.74505805969E-08  0.10566000000E+00  0.10566000000E+00 0. -1.
     999900   -1    0    0    0    0 -0.00000000000E+00 -0.00000000000E+00 -0.74505805969E-08  0.93827000000E+00  0.93827000000E+00 0.  1.
     999902    2    1    2    0    0 -0.50340207761E-02  0.10864970969E-01  0.21454777003E-01  0.10193597657E+01  0.10190636072E+01 0.  0.
     999903    2    3    3    0    0  0.73927665112E-01 -0.10171919442E+00  0.18750252737E-01  0.12867606390E+00  0.19845988474E-01 0.  0.
         14    1    1    2    0    0  0.50340207761E-02 -0.10864970969E-01 -0.21454777003E-01  0.24570234341E-01  0.00000000000E+00 0.  1.
     999901    1    3    3    0    0 -0.78961685888E-01  0.11258416539E+00  0.27045242661E-02  0.89068370176E+00  0.88000000000E+00 0. -1.
        -11    1    4    4    0    0  0.31939378765E-01 -0.59187240839E-01  0.14162257374E-01  0.68731972538E-01  0.51100000000E-03 0. -1.
         11    1    4    4    0    0  0.41988286347E-01 -0.42531953586E-01  0.45879953625E-02  0.59944091357E-01  0.51100000000E-03 0.  1.
</event>
<event>
 8    1  0.1093753E+005  0.1043930E+01  0.7957747E-01            NaN
         13   -1    0    0    0    0  0.00000000000E+00  0.00000000000E+00  0.74505805969E-08  0.10566000000E+00  0.10566000000E+00 0. -1.
     999900   -1    0    0    0    0 -0.00000000000E+00 -0.00000000000E+00 -0.74505805969E-08  0.93827000000E+00  0.93827000000E+00 0. -1.
     999902    2    1    2    0    0 -0.19131001424E-01 -0.95621094787E-02  0.46083234647E-02  0.10220515677E+01  0.10218173718E+01 0.  0.
     999903    2    3    3    0    0 -0.93629643709E-01 -0.94766639120E-01 -0.13259295081E-02  0.13478324590E+00  0.20433776336E-01 0.  0.
         14    1    1    2    0    0  0.19131001424E-01  0.95621094787E-02 -0.46083234647E-02  0.21878432264E-01  0.00000000000E+00 0.  1.
     999901    1    3    3    0    0  0.74498642285E-01  0.85204529642E-01  0.59342529729E-02  0.88726832184E+00  0.88000000000E+00 0.  1.
        -11    1    4    4    0    0 -0.45152064130E-01 -0.53746017631E-01 -0.91747620900E-02  0.70793931143E-01  0.51100000000E-03 0. -1.
         11    1    4    4    0    0 -0.48477579579E-01 -0.41020621490E-01  0.78488325818E-02  0.63989314758E-01  0.51100000000E-03 0.  1.
</event>
<event>
 8    1  0.1093753E+005  0.1043930E+01  0.7957747E-01            NaN
         13   -1    0    0    0    0  0.00000000000E+00  0.00000000000E+00  0.74505805969E-08  0.10566000000E+00  0.10566000000E+00 0. -1.
     999900   -1    0    0    0    0 -0.00000000000E+00 -0.00000000000E+00 -0.74505805969E-08  0.93827000000E+00  0.93827000000E+00 0. -1.
     999902    2    1    2    0    0  0.13176786284E-01 -0.19144430293E-01 -0.56113553872E-02  0.10200213359E+01  0.10197410954E+01 0.  0.
     999903    2    3    3    0    0 -0.91330358967E-01  0.80957806831E-01 -0.31928239298E-01  0.12781352401E+00  0.20530063299E-01 0.  0.
         14    1    1    2    0    0 -0.13176786284E-01  0.19144430293E-01  0.56113553872E-02  0.23908664064E-01  0.00000000000E+00 0. -1.
     999901    1    3    3    0    0  0.10450714525E+00 -0.10010223712E+00  0.26316883911E-01  0.89220781193E+00  0.88000000000E+00 0.  1.
        -11    1    4    4    0    0 -0.63173130604E-01  0.50761165051E-01 -0.11863256595E-01  0.81905666994E-01  0.51100000000E-03 0. -1.
         11    1    4    4    0    0 -0.28157228363E-01  0.30196641780E-01 -0.20064982703E-01  0.45907857015E-01  0.51100000000E-03 0.  1.
</event>
<event>
 8    1  0.1093753E+005  0.1043930E+01  0.7957747E-01            NaN
         13   -1    0    0    0    0  0.00000000000E+00  0.00000000000E+00  0.74505805969E-08  0.10566000000E+00  0.10566000000E+00 0. -1.
     999900   -1    0    0    0    0 -0.00000000000E+00 -0.00000000000E+00 -0.74505805969E-08  0.93827000000E+00  0.93827000000E+00 0.  1.
     999902    2    1    2    0    0 -0.67384246449E-03  0.23888054723E-01 -0.26910801828E-02  0.10198814006E+01  0.10195978306E+01 0.  0.
     999903    2    3    3    0    0  0.60204641328E-01  0.45282853228E-02 -0.11405596834E+00  0.13056529885E+00  0.19835048416E-01 0.  0.
         14    1    1    2    0    0  0.67384246449E-03 -0.23888054723E-01  0.26910801828E-02  0.24048599433E-01  0.00000000000E+00 0.  1.
     999901    1    3    3    0    0 -0.60878483792E-01  0.19359769400E-01  0.11136488815E+00  0.88931610172E+00  0.88000000000E+00 0. -1.
        -11    1    4    4    0    0  0.48169837340E-01  0.10287851663E-01 -0.79549989807E-01  0.93566207150E-01  0.51100000000E-03 0.  1.
         11    1    4    4    0    0  0.12034803988E-01 -0.57595663400E-02 -0.34505978529E-01  0.36999091701E-01  0.51100000000E-03 0. -1.
</event>
<event>
 8    1  0.1093753E+005  0.1043930E+01  0.7957747E-01            NaN
         13   -1    0    0    0    0  0.00000000000E+00  0.00000000000E+00  0.74505805969E-08  0.10566000000E+00  0.10566000000E+00 0.  1.
     999900   -1    0    0    0    0 -0.00000000000E+00 -0.00000000000E+00 -0.74505805969E-08  0.93827000000E+00  0.93827000000E+00 0. -1.
     999902    2    1    2    0    0  0.20227807256E-01  0.81066610689E-02 -0.89536027410E-02  0.10203705191E+01  0.10200984987E+01 0.  0.
     999903    2    3    3    0    0  0.66610704560E-01 -0.25540961603E-01 -0.11014567533E+00  0.13272004098E+00  0.19829594128E-01 0.  0.
         14    1    1    2    0    0 -0.20227807256E-01 -0.81066610689E-02  0.89536027410E-02  0.23559480939E-01  0.00000000000E+00 0.  1.
     999901    1    3    3    0    0 -0.46382897304E-01  0.33647622672E-01  0.10119207259E+00  0.88765047808E+00  0.88000000000E+00 0. -1.
        -11    1    4    4    0    0  0.46316916532E-01 -0.27114948745E-01 -0.80844448835E-01  0.97038977895E-01  0.51100000000E-03 0.  1.
         11    1    4    4    0    0  0.20293788028E-01  0.15739871416E-02 -0.29301226496E-01  0.35681063090E-01  0.51100000000E-03 0. -1.
</event>
<event>
 8    1  0.1093753E+005  0.1043930E+01  0.7957747E-01            NaN
         13   -1    0    0    0    0  0.00000000000E+00  0.00000000000E+00  0.74505805969E-08  0.10566000000E+00  0.10566000000E+00 0. -1.
     999900   -1    0    0    0    0 -0.00000000000E+00 -0.00000000000E+00 -0.74505805969E-08  0.93827000000E+00  0.93827000000E+00 0.  1.
     999902    2    1    2    0    0  0.19097949704E-01 -0.11036550860E-01 -0.10438022111E-01  0.10195273476E+01  0.10192352639E+01 0.  0.
     999903    2    3    3    0    0  0.66808338000E-01  0.20282025017E-01  0.10765404161E+00  0.12980667805E+00  0.19638391606E-01 0.  0.
         14    1    1    2    0    0 -0.19097949704E-01  0.11036550860E-01  0.10438022111E-01  0.24402652384E-01  0.00000000000E+00 0. -1.
     999901    1    3    3    0    0 -0.47710388297E-01 -0.31318575877E-01 -0.11809206372E+00  0.88972066957E+00  0.88000000000E+00 0.  1.
        -11    1    4    4    0    0  0.20244207285E-01 -0.29478980379E-02  0.31932256506E-01  0.37926879096E-01  0.51100000000E-03 0. -1.
         11    1    4    4    0    0  0.46564130716E-01  0.23229923055E-01  0.75721785106E-01  0.91879798950E-01  0.51100000000E-03 0.  1.
</event>
<event>
 8    1  0.1093753E+005  0.1043930E+01  0.7957747E-01            NaN
         13   -1    0    0    0    0  0.00000000000E+00  0.00000000000E+00  0.74505805969E-08  0.10566000000E+00  0.10566000000E+00 0. -1.
     999900   -1    0    0    0    0 -0.00000000000E+00 -0.00000000000E+00 -0.74505805969E-08  0.93827000000E+00  0.93827000000E+00 0. -1.
     999902    2    1    2    0    0  0.16910603682E-02  0.49131822979E-02 -0.23069005048E-01  0.10202830543E+01  0.10200089867E+01 0.  0.
     999903    2    3    3    0    0  0.10315000034E+00 -0.76283239548E-01 -0.13274513296E-01  0.13068611892E+00  0.21061665891E-01 0.  0.
         14    1    1    2    0    0 -0.16910603682E-02 -0.49131822979E-02  0.23069005048E-01  0.23646945666E-01  0.00000000000E+00 0. -1.
     999901    1    3    3    0    0 -0.10145893997E+00  0.81196421846E-01 -0.97944917521E-02  0.88959693541E+00  0.88000000000E+00 0. -1.
        -11    1    4    4    0    0  0.42865796678E-01 -0.19150619227E-01 -0.49765724782E-02  0.47214935521E-01  0.51100000000E-03 0. -1.
         11    1    4    4    0    0  0.60284203662E-01 -0.57132620321E-01 -0.82979408174E-02  0.83471183403E-01  0.51100000000E-03 0.  1.
</event>
<event>
 8    1  0.1093753E+005  0.1043930E+01  0.7957747E-01            NaN
         13   -1    0    0    0    0  0.00000000000E+00  0.00000000000E+00  0.74505805969E-08  0.10566000000E+00  0.10566000000E+00 0. -1.
     999900   -1    0    0    0    0 -0.00000000000E+00 -0.00000000000E+00 -0.74505805969E-08  0.93827000000E+00  0.93827000000E+00 0. -1.
     999902    2    1    2    0    0  0.14225997690E-02 -0.47187184356E-02 -0.23149913245E-01  0.10202612743E+01  0.10199866956E+01 0.  0.
     999903    2    3    3    0    0 -0.50231594792E-01  0.11631819425E-01  0.11503523814E+00  0.12783165131E+00  0.21196997949E-01 0.  0.
         14    1    1    2    0    0 -0.14225997690E-02  0.47187184356E-02  0.23149913245E-01  0.23668725716E-01  0.00000000000E+00 0. -1.
     999901    1    3    3    0    0  0.51654194561E-01 -0.16350537861E-01 -0.13818515139E+00  0.89242962298E+00  0.88000000000E+00 0. -1.
        -11    1    4    4    0    0 -0.14055478636E-01  0.13220033603E-01  0.45677038350E-01  0.49588090522E-01  0.51100000000E-03 0. -1.
         11    1    4    4    0    0 -0.36176116156E-01 -0.15882141779E-02  0.69358199794E-01  0.78243560784E-01  0.51100000000E-03 0.  1.
</event>
<event>
 8    1  0.1093753E+005  0.1043930E+01  0.7957747E-01            NaN
         13   -1    0    0    0    0  0.00000000000E+00  0.00000000000E+00  0.74505805969E-08  0.10566000000E+00  0.10566000000E+00 0.  1.
     999900   -1    0    0    0    0 -0.00000000000E+00 -0.00000000000E+00 -0.74505805969E-08  0.93827000000E+00  0.93827000000E+00 0.  1.
     999902    2    1    2    0    0  0.15769217637E-01  0.10258974313E-02 -0.18553469511E-01  0.10195588712E+01  0.10192675507E+01 0.  0.
     999903    2    3    3    0    0 -0.10997693897E+00  0.57964812510E-01 -0.27903426549E-01  0.12874937544E+00  0.18519013719E-01 0.  0.
         14    1    1    2    0    0 -0.15769217637E-01 -0.10258974313E-02  0.18553469511E-01  0.24371128848E-01  0.00000000000E+00 0.  1.
     999901    1    3    3    0    0  0.12574615661E+00 -0.56938915079E-01  0.93499570376E-02  0.89080949571E+00  0.88000000000E+00 0.  1.
        -11    1    4    4    0    0 -0.67523060890E-01  0.36010299446E-01 -0.26317151381E-01  0.80925638681E-01  0.51100000000E-03 0.  1.
         11    1    4    4    0    0 -0.42453878079E-01  0.21954513064E-01 -0.15862751680E-02  0.47823736761E-01  0.51100000000E-03 0. -1.
</event>
<event>
 8    1  0.1093753E+005  0.1043930E+01  0.7957747E-01            NaN
         13   -1    0    0    0    0  0.00000000000E+00  0.00000000000E+00  0.74505805969E-08  0.10566000000E+00  0.10566000000E+00 0. -1.
     999900   -1    0    0    0    0 -0.00000000000E+00 -0.00000000000E+00 -0.74505805969E-08  0.93827000000E+00  0.93827000000E+00 0.  1.
     999902    2    1    2    0    0 -0.32693509339E-02  0.24688373802E-01  0.21619462973E-02  0.10189324308E+01  0.10186257507E+01 0.  0.
     999903    2    3    3    0    0 -0.73512488749E-01  0.77596457545E-01 -0.73521702358E-01  0.13131687297E+00  0.20331851477E-01 0.  0.
         14    1    1    2    0    0  0.32693509339E-02 -0.24688373802E-01 -0.21619462973E-02  0.24997569248E-01  0.00000000000E+00 0. -1.
     999901    1    3    3    0    0  0.70243137815E-01 -0.52908083743E-01  0.75683648655E-01  0.88761555778E+00  0.88000000000E+00 0. -1.
        -11    1    4    4    0    0 -0.61733018583E-01  0.61332179710E-01 -0.49920913989E-01  0.10032427735E+00  0.51100000000E-03 0. -1.
         11    1    4    4    0    0 -0.11779470167E-01  0.16264277835E-01 -0.23600788369E-01  0.30992595624E-01  0.51100000000E-03 0.  1.
</event>
<event>
 8    1  0.1093753E+005  0.1043930E+01  0.7957747E-01            NaN
         13   -1    0    0    0    0  0.00000000000E+00  0.00000000000E+00  0.74505805969E-08  0.10566000000E+00  0.10566000000E+00 0. -1.
     999900   -1    0    0    0    0 -0.00000000000E+00 -0.00000000000E+00 -0.74505805969E-08  0.93827000000E+00  0.93827000000E+00 0.  1.
     999902    2    1    2    0    0 -0.11082451458E-01  0.14180406867E-01 -0.14938052573E-01  0.10205408982E+01  0.10202728433E+01 0.  0.
     999903    2    3    3    0    0 -0.52198915240E-01  0.36166687973E-01 -0.11549805565E+00  0.13358753167E+00  0.21750211221E-01 0.  0.
         14    1    1    2    0    0  0.11082451458E-01 -0.14180406867E-01  0.14938052573E-01  0.23389101819E-01  0.00000000000E+00 0. -1.
     999901    1    3    3    0    0  0.41116463782E-01 -0.21986281106E-01  0.10056000307E+00  0.88695336651E+00  0.88000000000E+00 0. -1.
        -11    1    4    4    0    0 -0.43192359199E-01  0.18283031742E-01 -0.85407192300E-01  0.97439718598E-01  0.51100000000E-03 0.  1.
         11    1    4    4    0    0 -0.90065560414E-02  0.17883656231E-01 -0.30090863345E-01  0.36147813070E-01  0.51100000000E-03 0. -1.
</event>
<event>
 8    1  0.1093753E+005  0.1043930E+01  0.7957747E-01            NaN
         13   -1    0    0    0    0  0.00000000000E+00  0.00000000000E+00  0.74505805969E-08  0.10566000000E+00  0.10566000000E+00 0. -1.
     999900   -1    0    0    0    0 -0.00000000000E+00 -0.00000000000E+00 -0.74505805969E-08  0.93827000000E+00  0.93827000000E+00 0.  1.
     999902    2    1    2    0    0  0.26063036485E-02  0.75050483512E-02 -0.25190810216E-01  0.10175160740E+01  0.10171731737E+01 0.  0.
     999903    2    3    3    0    0  0.91232886645E-01  0.58044512791E-01  0.64224969020E-01  0.12712060550E+00  0.18498557411E-01 0.  0.
         14    1    1    2    0    0 -0.26063036485E-02 -0.75050483512E-02  0.25190810216E-01  0.26413926039E-01  0.00000000000E+00 0. -1.
     999901    1    3    3    0    0 -0.88626582997E-01 -0.50539464440E-01 -0.89415779236E-01  0.89039546846E+00  0.88000000000E+00 0.  1.
        -11    1    4    4    0    0  0.59077012177E-01  0.40560593295E-01  0.32529209549E-01  0.78699845560E-01  0.51100000000E-03 0. -1.
         11    1    4    4    0    0  0.32155874468E-01  0.17483919496E-01  0.31695759471E-01  0.48420759940E-01  0.51100000000E-03 0.  1.
</event>
<event>
 8    1  0.1093753E+005  0.1043930E+01  0.7957747E-01            NaN
         13   -1    0    0    0    0  0.00000000000E+00  0.00000000000E+00  0.74505805969E-08  0.10566000000E+00  0.10566000000E+00 0. -1.
     999900   -1    0    0    0    0 -0.00000000000E+00 -0.00000000000E+00 -0.74505805969E-08  0.93827000000E+00  0.93827000000E+00 0.  1.
     999902    2    1    2    0    0  0.17911684824E-01  0.53908043457E-02 -0.65669686247E-02  0.10241054117E+01  0.10239135119E+01 0.  0.
     999903    2    3    3    0    0  0.57288469122E-01  0.32422252587E-02  0.11986479425E+00  0.13419522622E+00  0.18663041582E-01 0.  0.
         14    1    1    2    0    0 -0.17911684824E-01 -0.53908043457E-02  0.65669686247E-02  0.19824588310E-01  0.00000000000E+00 0. -1.
     999901    1    3    3    0    0 -0.39376784298E-01  0.21485790870E-02 -0.12643176288E+00  0.88991018547E+00  0.88000000000E+00 0.  1.
        -11    1    4    4    0    0  0.33508192914E-01  0.11027630983E-01  0.72250227083E-01  0.80403756579E-01  0.51100000000E-03 0.  1.
         11    1    4    4    0    0  0.23780276208E-01 -0.77854057243E-02  0.47614567170E-01  0.53791469645E-01  0.51100000000E-03 0. -1.
</event>
<event>
 8    1  0.1093753E+005  0.1043930E+01  0.7957747E-01            NaN
         13   -1    0    0    0    0  0.00000000000E+00  0.00000000000E+00  0.74505805969E-08  0.10566000000E+00  0.10566000000E+00 0. -1.
     999900   -1    0    0    0    0 -0.00000000000E+00 -0.00000000000E+00 -0.74505805969E-08  0.93827000000E+00  0.93827000000E+00 0. -1.
     999902    2    1    2    0    0  0.11664052737E-02 -0.10424321869E-02 -0.23941795054E-01  0.10199371528E+01  0.10196549117E+01 0.  0.
     999903    2    3    3    0    0 -0.38948969085E-01  0.19452881621E-01  0.11768267931E+00  0.12747606520E+00  0.22483269216E-01 0.  0.
         14    1    1    2    0    0 -0.11664052737E-02  0.10424321869E-02  0.23941795054E-01  0.23992847195E-01  0.00000000000E+00 0. -1.
     999901    1    3    3    0    0  0.40115374359E-01 -0.20495313808E-01 -0.14162447436E+00  0.89246108760E+00  0.88000000000E+00 0. -1.
        -11    1    4    4    0    0 -0.24467113111E-01  0.87692844269E-02  0.95133566752E-01  0.98621481520E-01  0.51100000000E-03 0.  1.
         11    1    4    4    0    0 -0.14481855974E-01  0.10683597194E-01  0.22549112554E-01  0.28854583681E-01  0.51100000000E-03 0. -1.
</event>
<event>
 8    1  0.1093753E+005  0.1043930E+01  0.7957747E-01            NaN
         13   -1    0    0    0    0  0.00000000000E+00  0.00000000000E+00  0.74505805969E-08  0.10566000000E+00  0.10566000000E+00 0.  1.
     999900   -1    0    0    0    0 -0.00000000000E+00 -0.00000000000E+00 -0.74505805969E-08  0.93827000000E+00  0.93827000000E+00 0. -1.
     999902    2    1    2    0    0 -0.20743779256E-01 -0.49218361817E-02  0.97007280665E-02  0.10205070844E+01  0.10202382449E+01 0.  0.
     999903    2    3    3    0    0  0.25032371539E-01 -0.19663805348E-02  0.12749225322E+00  0.13147444492E+00  0.20019209715E-01 0.  0.
         14    1    1    2    0    0  0.20743779256E-01  0.49218361817E-02 -0.97007280665E-02  0.23422915580E-01  0.00000000000E+00 0. -1.
     999901    1    3    3    0    0 -0.45776150795E-01 -0.29554556469E-02 -0.11779152516E+00  0.88903263950E+00  0.88000000000E+00 0. -1.
        -11    1    4    4    0    0  0.44029482327E-02 -0.18773922970E-02  0.73742836187E-01  0.73899780547E-01  0.51100000000E-03 0.  1.
         11    1    4    4    0    0  0.20629423306E-01 -0.88988237749E-04  0.53749417036E-01  0.57574664372E-01  0.51100000000E-03 0. -1.
</event>
<event>
 8    1  0.1093753E+005  0.1043930E+01  0.7957747E-01            NaN
         13   -1    0    0    0    0  0.00000000000E+00  0.00000000000E+00  0.74505805969E-08  0.10566000000E+00  0.10566000000E+00 0. -1.
     999900   -1    0    0    0    0 -0.00000000000E+00 -0.00000000000E+00 -0.74505805969E-08  0.93827000000E+00  0.93827000000E+00 0.  1.
     999902    2    1    2    0    0  0.23181067214E-01  0.39822964997E-03 -0.71758419406E-02  0.10196604064E+01  0.10193715374E+01 0.  0.
     999903    2    3    3    0    0  0.12406292239E+00  0.38270257235E-01 -0.20734279803E-01  0.13298387556E+00  0.19964455914E-01 0.  0.
         14    1    1    2    0    0 -0.23181067214E-01 -0.39822964997E-03  0.71758419406E-02  0.24269593561E-01  0.00000000000E+00 0. -1.
     999901    1    3    3    0    0 -0.10088185517E+00 -0.37872027585E-01  0.13558437862E-01  0.88667653088E+00  0.88000000000E+00 0. -1.
        -11    1    4    4    0    0  0.58393635367E-01  0.98587154326E-02 -0.15620736500E-01  0.61247689353E-01  0.51100000000E-03 0. -1.
         11    1    4    4    0    0  0.65669287020E-01  0.28411541803E-01 -0.51135433033E-02  0.71736186206E-01  0.51100000000E-03 0.  1.
</event>
<event>
 8    1  0.1093753E+005  0.1043930E+01  0.7957747E-01            NaN
         13   -1    0    0    0    0  0.00000000000E+00  0.00000000000E+00  0.74505805969E-08  0.10566000000E+00  0.10566000000E+00 0. -1.
     999900   -1    0    0    0    0 -0.00000000000E+00 -0.00000000000E+00 -0.74505805969E-08  0.93827000000E+00  0.93827000000E+00 0. -1.
     999902    2    1    2    0    0 -0.13762563561E-01  0.14015717878E-01  0.12942745892E-01  0.10204063274E+01  0.10201351429E+01 0.  0.
     999903    2    3    3    0    0  0.83376339772E-01  0.91499167275E-01  0.39505367583E-01  0.13128022587E+00  0.18711279790E-01 0.  0.
         14    1    1    2    0    0  0.13762563561E-01 -0.14015717878E-01 -0.12942745892E-01  0.23523672643E-01  0.00000000000E+00 0. -1.
     999901    1    3    3    0    0 -0.97138903333E-01 -0.77483449397E-01 -0.26562621691E-01  0.88912610149E+00  0.88000000000E+00 0. -1.
        -11    1    4    4    0    0  0.61210878121E-01  0.67807042680E-01  0.20313813343E-01  0.93581401843E-01  0.51100000000E-03 0.  1.
         11    1    4    4    0    0  0.22165461651E-01  0.23692124594E-01  0.19191554240E-01  0.37698824029E-01  0.51100000000E-03 0. -1.
</event>
<event>
 8    1  0.1093753E+005  0.1043930E+01  0.7957747E-01            NaN
         13   -1    0    0    0    0  0.00000000000E+00  0.00000000000E+00  0.74505805969E-08  0.10566000000E+00  0.10566000000E+00 0. -1.
     999900   -1    0    0    0    0 -0.00000000000E+00 -0.00000000000E+00 -0.74505805969E-08  0.93827000000E+00  0.93827000000E+00 0.  1.
     999902    2    1    2    0    0 -0.28812593508E-02 -0.23153999199E-01  0.94927677682E-02  0.10187402804E+01  0.10184288080E+01 0.  0.
     999903    2    3    3    0    0  0.44172281945E-01  0.10040429013E+00  0.61531084783E-01  0.12734324592E+00  0.19950336304E-01 0.  0.
         14    1    1    2    0    0  0.28812593508E-02  0.23153999199E-01 -0.94927677682E-02  0.25189719615E-01  0.00000000000E+00 0. -1.
     999901    1    3    3    0    0 -0.47053541296E-01 -0.12355828933E+00 -0.52038317015E-01  0.89139703446E+00  0.88000000000E+00 0. -1.
        -11    1    4    4    0    0  0.23239717424E-01  0.51969648068E-01  0.43260020160E-01  0.71502582131E-01  0.51100000000E-03 0.  1.
         11    1    4    4    0    0  0.20932564521E-01  0.48434642063E-01  0.18271064624E-01  0.55840663791E-01  0.51100000000E-03 0. -1.
</event>
<event>
 8    1  0.1093753E+005  0.1043930E+01  0.7957747E-01            NaN
         13   -1    0    0    0    0  0.00000000000E+00  0.00000000000E+00  0.74505805969E-08  0.10566000000E+00  0.10566000000E+00 0. -1.
     999900   -1    0    0    0    0 -0.00000000000E+00 -0.00000000000E+00 -0.74505805969E-08  0.93827000000E+00  0.93827000000E+00 0. -1.
     999902    2    1    2    0    0  0.14875079187E-01 -0.13051705351E-01 -0.12568834049E-01  0.10204866516E+01  0.10202173374E+01 0.  0.
     999903    2    3    3    0    0  0.11570067060E+00 -0.62483560556E-01 -0.94656404153E-02  0.13334577330E+00  0.20016403057E-01 0.  0.
         14    1    1    2    0    0 -0.14875079187E-01  0.13051705351E-01  0.12568834049E-01  0.23443348369E-01  0.00000000000E+00 0. -1.
     999901    1    3    3    0    0 -0.10082559141E+00  0.49431855206E-01 -0.31031936333E-02  0.88714087833E+00  0.88000000000E+00 0. -1.
        -11    1    4    4    0    0  0.27735166643E-01 -0.25041380602E-01 -0.12911957121E-02  0.37393027673E-01  0.51100000000E-03 0. -1.
         11    1    4    4    0    0  0.87965503959E-01 -0.37442179954E-01 -0.81744447032E-02  0.95952745629E-01  0.51100000000E-03 0.  1.
</event>
<event>
 8    1  0.1093753E+005  0.1043930E+01  0.7957747E-01            NaN
         13   -1    0    0    0    0  0.00000000000E+00  0.00000000000E+00  0.74505805969E-08  0.10566000000E+00  0.10566000000E+00 0.  1.
     999900   -1    0    0    0    0 -0.00000000000E+00 -0.00000000000E+00 -0.74505805969E-08  0.93827000000E+00  0.93827000000E+00 0. -1.
     999902    2    1    2    0    0  0.95230918806E-02 -0.21945721009E-01  0.21151852513E-02  0.10199137980E+01  0.10196310006E+01 0.  0.
     999903    2    3    3    0    0 -0.28674927058E-02  0.12536562316E+00  0.12154210415E-01  0.12752658343E+00  0.19762152408E-01 0.  0.
         14    1    1    2    0    0 -0.95230918806E-02  0.21945721009E-01 -0.21151852513E-02  0.24016201994E-01  0.00000000000E+00 0. -1.
     999901    1    3    3    0    0  0.12390584586E-01 -0.14731134416E+00 -0.10039025163E-01  0.89238721457E+00  0.88000000000E+00 0. -1.
        -11    1    4    4    0    0 -0.82233228890E-02  0.86105334081E-01  0.15031762960E-01  0.87795026142E-01  0.51100000000E-03 0.  1.
         11    1    4    4    0    0  0.53558301831E-02  0.39260289074E-01 -0.28775525457E-02  0.39731557291E-01  0.51100000000E-03 0. -1.
</event>
<event>
 8    1  0.1093753E+005  0.1043930E+01  0.7957747E-01            NaN
         13   -1    0    0    0    0  0.00000000000E+00  0.00000000000E+00  0.74505805969E-08  0.10566000000E+00  0.10566000000E+00 0. -1.
     999900   -1    0    0    0    0 -0.00000000000E+00 -0.00000000000E+00 -0.74505805969E-08  0.93827000000E+00  0.93827000000E+00 0.  1.
     999902    2    1    2    0    0  0.16969718249E-01 -0.26648980657E-01 -0.24464688812E-02  0.10122420730E+01  0.10117459610E+01 0.  0.
     999903    2    3    3    0    0 -0.78316712437E-01 -0.53921279251E-01  0.75731843782E-01  0.12323412550E+00  0.20256498289E-01 0.  0.
         14    1    1    2    0    0 -0.16969718249E-01  0.26648980657E-01  0.24464688812E-02  0.31687926999E-01  0.00000000000E+00 0. -1.
     999901    1    3    3    0    0  0.95286430687E-01  0.27272298594E-01 -0.78178312663E-01  0.88900794750E+00  0.88000000000E+00 0.  1.
        -11    1    4    4    0    0 -0.36229113225E-01 -0.12949420165E-01  0.29658568493E-01  0.48581147925E-01  0.51100000000E-03 0.  1.
         11    1    4    4    0    0 -0.42087599212E-01 -0.40971859086E-01  0.46073275289E-01  0.74652977578E-01  0.51100000000E-03 0. -1.
</event>
<event>
 8    1  0.1093753E+005  0.1043930E+01  0.7957747E-01            NaN
         13   -1    0    0    0    0  0.00000000000E+00  0.00000000000E+00  0.74505805969E-08  0.10566000000E+00  0.10566000000E+00 0.  1.
     999900   -1    0    0    0    0 -0.00000000000E+00 -0.00000000000E+00 -0.74505805969E-08  0.93827000000E+00  0.93827000000E+00 0.  1.
     999902    2    1    2    0    0 -0.23859473351E-01 -0.10614177768E-01 -0.55882626836E-02  0.10172248709E+01  0.10168742666E+01 0.  0.
     999903    2    3    3    0    0 -0.10628131986E+00  0.71211416385E-01 -0.14571313698E-03  0.12957718746E+00  0.20577694323E-01 0.  0.
         14    1    1    2    0    0  0.23859473351E-01  0.10614177768E-01  0.55882626836E-02  0.26705129060E-01  0.00000000000E+00 0. -1.
     999901    1    3    3    0    0  0.82421846507E-01 -0.81825594153E-01 -0.54425495466E-02  0.88764768348E+00  0.88000000000E+00 0.  1.
        -11    1    4    4    0    0 -0.34633333128E-01  0.34913534577E-01 -0.22291996020E-02  0.49230611534E-01  0.51100000000E-03 0.  1.
         11    1    4    4    0    0 -0.71647986730E-01  0.36297881808E-01  0.20834864650E-02  0.80346575927E-01  0.51100000000E-03 0. -1.
</event>
<event>
 8    1  0.1093753E+005  0.1043930E+01  0.7957747E-01            NaN
         13   -1    0    0    0    0  0.00000000000E+00  0.00000000000E+00  0.74505805969E-08  0.10566000000E+00  0.10566000000E+00 0. -1.
     999900   -1    0    0    0    0 -0.00000000000E+00 -0.00000000000E+00 -0.74505805969E-08  0.93827000000E+00  0.93827000000E+00 0. -1.
     999902    2    1    2    0    0 -0.26590497512E-02  0.54826189927E-02  0.22649549475E-01  0.10204751125E+01  0.10202055300E+01 0.  0.
     999903    2    3    3    0    0 -0.58882123005E-03 -0.80808995556E-01 -0.97429704125E-01  0.12813573998E+00  0.19894223823E-01 0.  0.
         14    1    1    2    0    0  0.26590497512E-02 -0.54826189927E-02 -0.22649549475E-01  0.23454887508E-01  0.00000000000E+00 0.  1.
     999901    1    3    3    0    0 -0.20702285212E-02  0.86291614548E-01  0.12007925360E+00  0.89233937251E+00  0.88000000000E+00 0.  1.
        -11    1    4    4    0    0  0.76312628027E-02 -0.64349708720E-01 -0.74812015841E-01  0.98975855740E-01  0.51100000000E-03 0. -1.
         11    1    4    4    0    0 -0.82200840328E-02 -0.16459286835E-01 -0.22617688284E-01  0.29159884241E-01  0.51100000000E-03 0.  1.
</event>
<event>
 8    1  0.1093753E+005  0.1043930E+01  0.7957747E-01            NaN
         13   -1    0    0    0    0  0.00000000000E+00  0.00000000000E+00  0.74505805969E-08  0.10566000000E+00  0.10566000000E+00 0.  1.
     999900   -1    0    0    0    0 -0.00000000000E+00 -0.00000000000E+00 -0.74505805969E-08  0.93827000000E+00  0.93827000000E+00 0. -1.
     999902    2    1    2    0    0 -0.19333084509E-01 -0.13972095686E-01 -0.10996888135E-01  0.10176636877E+01  0.10173246591E+01 0.  0.
     999903    2    3    3    0    0  0.12119761591E+00 -0.28916622024E-01  0.38420683031E-02  0.12626455639E+00  0.20073454607E-01 0.  0.
         14    1    1    2    0    0  0.19333084509E-01  0.13972095686E-01  0.10996888135E-01  0.26266312325E-01  0.00000000000E+00 0.  1.
     999901    1    3    3    0    0 -0.14053070042E+00  0.14944526337E-01 -0.14838956438E-01  0.89139913129E+00  0.88000000000E+00 0.  1.
        -11    1    4    4    0    0  0.57412186143E-01 -0.21898539971E-01  0.79489164394E-02  0.61960887374E-01  0.51100000000E-03 0. -1.
         11    1    4    4    0    0  0.63785429768E-01 -0.70180820521E-02 -0.41068481362E-02  0.64303669016E-01  0.51100000000E-03 0.  1.
</event>
<event>
 8    1  0.1093753E+005  0.1043930E+01  0.7957747E-01            NaN
         13   -1    0    0    0    0  0.00000000000E+00  0.00000000000E+00  0.74505805969E-08  0.10566000000E+00  0.10566000000E+00 0. -1.
     999900   -1    0    0    0    0 -0.00000000000E+00 -0.00000000000E+00 -0.74505805969E-08  0.93827000000E+00  0.93827000000E+00 0.  1.
     999902    2    1    2    0    0 -0.11886822288E-01  0.57360897541E-03  0.20288892080E-01  0.10204084203E+01  0.10201372846E+01 0.  0.
     999903    2    3    3    0    0  0.51812680720E-01  0.11146808456E-01  0.11971705393E+00  0.13245832111E+00  0.20105437258E-01 0.  0.
         14    1    1    2    0    0  0.11886822288E-01 -0.57360897541E-03 -0.20288892080E-01  0.23521579735E-01  0.00000000000E+00 0.  1.
     999901    1    3    3    0    0 -0.63699503008E-01 -0.10573199481E-01 -0.99428161845E-01  0.88795009916E+00  0.88000000000E+00 0.  1.
        -11    1    4    4    0    0  0.51139278682E-01  0.12197518688E-01  0.10258585168E+00  0.11527412274E+00  0.51100000000E-03 0. -1.
         11    1    4    4    0    0  0.67340203793E-03 -0.10507102323E-02  0.17131202241E-01  0.17184198368E-01  0.51100000000E-03 0.  1.
</event>
<event>
 8    1  0.1093753E+005  0.1043930E+01  0.7957747E-01            NaN
         13   -1    0    0    0    0  0.00000000000E+00  0.00000000000E+00  0.74505805969E-08  0.10566000000E+00  0.10566000000E+00 0.  1.
     999900   -1    0    0    0    0 -0.00000000000E+00 -0.00000000000E+00 -0.74505805969E-08  0.93827000000E+00  0.93827000000E+00 0. -1.
     999902    2    1    2    0    0 -0.30617350759E-02  0.96976176238E-02 -0.20671105281E-01  0.10208927996E+01  0.10206328408E+01 0.  0.
     999903    2    3    3    0    0  0.99461580534E-01  0.81587604971E-01 -0.22385994049E-01  0.13202715093E+00  0.19516469088E-01 0.  0.
         14    1    1    2    0    0  0.30617350759E-02 -0.96976176238E-02  0.20671105281E-01  0.23037200411E-01  0.00000000000E+00 0.  1.
     999901    1    3    3    0    0 -0.10252331561E+00 -0.71889987347E-01  0.17148887689E-02  0.88886564866E+00  0.88000000000E+00 0. -1.
        -11    1    4    4    0    0  0.11781222149E-01  0.58370532004E-02 -0.76554652174E-02  0.15222866158E-01  0.51100000000E-03 0. -1.
         11    1    4    4    0    0  0.87680358385E-01  0.75750551770E-01 -0.14730528832E-01  0.11680428477E+00  0.51100000000E-03 0.  1.
</event>
<event>
 8    1  0.1093753E+005  0.1043930E+01  0.7957747E-01            NaN
         13   -1    0    0    0    0  0.00000000000E+00  0.00000000000E+00  0.74505805969E-08  0.10566000000E+00  0.10566000000E+00 0.  1.
     999900   -1    0    0    0    0 -0.00000000000E+00 -0.00000000000E+00 -0.74505805969E-08  0.93827000000E+00  0.93827000000E+00 0.  1.
     999902    2    1    2    0    0 -0.66051910530E-02  0.17558970971E-01  0.13586182955E-01  0.10207668746E+01  0.10205040333E+01 0.  0.
     999903    2    3    3    0    0 -0.37521513533E-02 -0.12527683370E+00 -0.20690305620E-01  0.12858691261E+00  0.19953487093E-01 0.  0.
         14    1    1    2    0    0  0.66051910530E-02 -0.17558970971E-01 -0.13586182955E-01  0.23163125387E-01  0.00000000000E+00 0. -1.
     999901    1    3    3    0    0 -0.28530396997E-02  0.14283580467E+00  0.34276488575E-01  0.89217996200E+00  0.88000000000E+00 0.  1.
        -11    1    4    4    0    0 -0.32059937780E-02 -0.94769787262E-01 -0.24213469552E-01  0.97867993760E-01  0.51100000000E-03 0.  1.
         11    1    4    4    0    0 -0.54615757533E-03 -0.30507046434E-01  0.35231639322E-02  0.30718918850E-01  0.51100000000E-03 0. -1.
</event>
<event>
 8    1  0.1093753E+005  0.1043930E+01  0.7957747E-01            NaN
         13   -1    0    0    0    0  0.00000000000E+00  0.00000000000E+00  0.74505805969E-08  0.10566000000E+00  0.10566000000E+00 0. -1.
     999900   -1    0    0    0    0 -0.00000000000E+00 -0.00000000000E+00 -0.74505805969E-08  0.93827000000E+00  0.93827000000E+00 0.  1.
     999902    2    1    2    0    0  0.67206187973E-02  0.45376646388E-03 -0.22668304649E-01  0.10202820687E+01  0.10200079779E+01 0.  0.
     999903    2    3    3    0    0 -0.97734072666E-01 -0.10891638361E-01 -0.85307163128E-01  0.13182096801E+00  0.20709388681E-01 0.  0.
         14    1    1    2    0    0 -0.67206187973E-02 -0.45376646388E-03  0.22668304649E-01  0.23647931341E-01  0.00000000000E+00 0. -1.
     999901    1    3    3    0    0  0.10445469146E+00  0.11345404824E-01  0.62638858479E-01  0.88846110065E+00  0.88000000000E+00 0. -1.
        -11    1    4    4    0    0 -0.59237216678E-01  0.35055082611E-02 -0.52412705286E-01  0.79175054306E-01  0.51100000000E-03 0. -1.
         11    1    4    4    0    0 -0.38496855987E-01 -0.14397146622E-01 -0.32894457842E-01  0.52645913702E-01  0.51100000000E-03 0.  1.
</event>
<event>
 8    1  0.1093753E+005  0.1043930E+01  0.7957747E-01            NaN
         13   -1    0    0    0    0  0.00000000000E+00  0.00000000000E+00  0.74505805969E-08  0.10566000000E+00  0.10566000000E+00 0. -1.
     999900   -1    0    0    0    0 -0.00000000000E+00 -0.00000000000E+00 -0.74505805969E-08  0.93827000000E+00  0.93827000000E+00 0. -1.
     999902    2    1    2    0    0 -0.17920446050E-01 -0.13458721820E-01 -0.38016140741E-02  0.10211982634E+01  0.10209452293E+01 0.  0.
     999903    2    3    3    0    0  0.43460998119E-01 -0.23258808703E-01  0.11905841275E+00  0.13049162842E+00  0.20574958118E-01 0.  0.
         14    1    1    2    0    0  0.17920446050E-01  0.13458721820E-01  0.38016140741E-02  0.22731736608E-01  0.00000000000E+00 0.  1.
     999901    1    3    3    0    0 -0.61381444169E-01  0.98000868828E-02 -0.12286002682E+00  0.89070663497E+00  0.88000000000E+00 0. -1.
        -11    1    4    4    0    0  0.11592679797E-01 -0.10951997745E-01  0.19282857682E-01  0.25028507763E-01  0.51100000000E-03 0.  1.
         11    1    4    4    0    0  0.31868318322E-01 -0.12306810958E-01  0.99775555068E-01  0.10546312066E+00  0.51100000000E-03 0. -1.
</event>
<event>
 8    1  0.1093753E+005  0.1043930E+01  0.7957747E-01            NaN
         13   -1    0    0    0    0  0.00000000000E+00  0.00000000000E+00  0.74505805969E-08  0.10566000000E+00  0.10566000000E+00 0. -1.
     999900   -1    0    0    0    0 -0.00000000000E+00 -0.00000000000E+00 -0.74505805969E-08  0.93827000000E+00  0.93827000000E+00 0.  1.
     999902    2    1    2    0    0  0.54795087985E-02  0.11923114864E-01 -0.19456382344E-01  0.10204622243E+01  0.10201923420E+01 0.  0.
     999903    2    3    3    0    0 -0.99951049287E-01 -0.19248344474E-01 -0.78893861005E-01  0.13163148878E+00  0.27237777340E-01 0.  0.
         14    1    1    2    0    0 -0.54795087985E-02 -0.11923114864E-01  0.19456382344E-01  0.23467775750E-01  0.00000000000E+00 0. -1.
     999901    1    3    3    0    0  0.10543055809E+00  0.31171459338E-01  0.59437478661E-01  0.88883073547E+00  0.88000000000E+00 0. -1.
        -11    1    4    4    0    0 -0.17728713585E-01 -0.12736795151E-01 -0.93834789893E-02  0.23766447674E-01  0.51100000000E-03 0.  1.
         11    1    4    4    0    0 -0.82222335702E-01 -0.65115493228E-02 -0.69510382016E-01  0.10786504110E+00  0.51100000000E-03 0. -1.
</event>
<event>
 8    1  0.1093753E+005  0.1043930E+01  0.7957747E-01            NaN
         13   -1    0    0    0    0  0.00000000000E+00  0.00000000000E+00  0.74505805969E-08  0.10566000000E+00  0.10566000000E+00 0.  1.
     999900   -1    0    0    0    0 -0.00000000000E+00 -0.00000000000E+00 -0.74505805969E-08  0.93827000000E+00  0.93827000000E+00 0. -1.
     999902    2    1    2    0    0  0.89823884470E-02 -0.22377745241E-01  0.24836984922E-02  0.10196892174E+01  0.10194010420E+01 0.  0.
     999903    2    3    3    0    0  0.52462696876E-01 -0.87176401809E-02 -0.11687859765E+00  0.13046230964E+00  0.23053759641E-01 0.  0.
         14    1    1    2    0    0 -0.89823884470E-02  0.22377745241E-01 -0.24836984922E-02  0.24240782629E-01  0.00000000000E+00 0.  1.
     999901    1    3    3    0    0 -0.43480308429E-01 -0.13660105060E-01  0.11936229614E+00  0.88922690773E+00  0.88000000000E+00 0. -1.
        -11    1    4    4    0    0  0.19343070085E-01 -0.58378250581E-02 -0.70881393456E-01  0.73706632137E-01  0.51100000000E-03 0. -1.
         11    1    4    4    0    0  0.33119626791E-01 -0.28798151228E-02 -0.45997204197E-01  0.56755677503E-01  0.51100000000E-03 0.  1.
</event>
<event>
 8    1  0.1093753E+005  0.1043930E+01  0.7957747E-01            NaN
         13   -1    0    0    0    0  0.00000000000E+00  0.00000000000E+00  0.74505805969E-08  0.10566000000E+00  0.10566000000E+00 0.  1.
     999900   -1    0    0    0    0 -0.00000000000E+00 -0.00000000000E+00 -0.74505805969E-08  0.93827000000E+00  0.93827000000E+00 0. -1.
     999902    2    1    2    0    0  0.13978290599E-01 -0.16374944137E-01 -0.10069920305E-01  0.10201616450E+01  0.10198847225E+01 0.  0.
     999903    2    3    3    0    0  0.11144389126E+00 -0.18267210949E-05 -0.68959714172E-01  0.13267326193E+00  0.20664252973E-01 0.  0.
         14    1    1    2    0    0 -0.13978290599E-01  0.16374944137E-01  0.10069920305E-01  0.23768354982E-01  0.00000000000E+00 0. -1.
     999901    1    3    3    0    0 -0.97465600662E-01 -0.16373117416E-01  0.58889793868E-01  0.88748838308E+00  0.88000000000E+00 0.  1.
        -11    1    4    4    0    0  0.84078719919E-01  0.84872087110E-02 -0.48193395968E-01  0.97283751936E-01  0.51100000000E-03 0. -1.
         11    1    4    4    0    0  0.27365171343E-01 -0.84890354321E-02 -0.20766318205E-01  0.35389509999E-01  0.51100000000E-03 0.  1.
</event>
<event>
 8    1  0.1093753E+005  0.1043930E+01  0.7957747E-01            NaN
         13   -1    0    0    0    0  0.00000000000E+00  0.00000000000E+00  0.74505805969E-08  0.10566000000E+00  0.10566000000E+00 0.  1.
     999900   -1    0    0    0    0 -0.00000000000E+00 -0.00000000000E+00 -0.74505805969E-08  0.93827000000E+00  0.93827000000E+00 0. -1.
     999902    2    1    2    0    0  0.17392351496E-01 -0.12671564694E-01 -0.43904974575E-02  0.10219677845E+01  0.10217317719E+01 0.  0.
     999903    2    3    3    0    0 -0.41968563343E-01 -0.14162147295E-02  0.12212646850E+00  0.13086905607E+00  0.21177099771E-01 0.  0.
         14    1    1    2    0    0 -0.17392351496E-01  0.12671564694E-01  0.43904974575E-02  0.21962215514E-01  0.00000000000E+00 0. -1.
     999901    1    3    3    0    0  0.59360914840E-01 -0.11255349965E-01 -0.12651696596E+00  0.89109872842E+00  0.88000000000E+00 0. -1.
        -11    1    4    4    0    0 -0.24500637175E-01 -0.19333812303E-02  0.98235070823E-01  0.10126405801E+00  0.51100000000E-03 0.  1.
         11    1    4    4    0    0 -0.17467926168E-01  0.51716650084E-03  0.23891397676E-01  0.29604998053E-01  0.51100000000E-03 0. -1.
</event>
<event>
 8    1  0.1093753E+005  0.1043930E+01  0.7957747E-01            NaN
         13   -1    0    0    0    0  0.00000000000E+00  0.00000000000E+00  0.74505805969E-08  0.10566000000E+00  0.10566000000E+00 0. -1.
     999900   -1    0    0    0    0 -0.00000000000E+00 -0.00000000000E+00 -0.74505805969E-08  0.93827000000E+00  0.93827000000E+00 0.  1.
     999902    2    1    2    0    0  0.98600044384E-02 -0.15066913545E-01 -0.14967432586E-01  0.10205151413E+01  0.10202464888E+01 0.  0.
     999903    2    3    3    0    0 -0.49823105796E-01  0.30540732222E-01  0.11236141852E+00  0.12818405511E+00  0.19773351198E-01 0.  0.
         14    1    1    2    0    0 -0.98600044384E-02  0.15066913545E-01  0.14967432586E-01  0.23414858733E-01  0.00000000000E+00 0.  1.
     999901    1    3    3    0    0  0.59683110234E-01 -0.45607645767E-01 -0.12732885110E+00  0.89233108616E+00  0.88000000000E+00 0.  1.
        -11    1    4    4    0    0 -0.14462308268E-01  0.10359899910E-01  0.55237255714E-01  0.58033623240E-01  0.51100000000E-03 0.  1.
         11    1    4    4    0    0 -0.35360797528E-01  0.20180832312E-01  0.57124162802E-01  0.70150431869E-01  0.51100000000E-03 0. -1.
</event>
<event>
 8    1  0.1093753E+005  0.1043930E+01  0.7957747E-01            NaN
         13   -1    0    0    0    0  0.00000000000E+00  0.00000000000E+00  0.74505805969E-08  0.10566000000E+00  0.10566000000E+00 0. -1.
     999900   -1    0    0    0    0 -0.00000000000E+00 -0.00000000000E+00 -0.74505805969E-08  0.93827000000E+00  0.93827000000E+00 0.  1.
     999902    2    1    2    0    0 -0.24246228729E-02 -0.70918916347E-02  0.22725895264E-01  0.10200001016E+01  0.10197193571E+01 0.  0.
     999903    2    3    3    0    0 -0.29694607759E-01  0.35631481702E-02  0.12839199771E+00  0.13319544036E+00  0.19027729801E-01 0.  0.
         14    1    1    2    0    0  0.24246228729E-02  0.70918916347E-02 -0.22725895264E-01  0.23929898424E-01  0.00000000000E+00 0.  1.
     999901    1    3    3    0    0  0.27269984886E-01 -0.10655039805E-01 -0.10566610245E+00  0.88680466122E+00  0.88000000000E+00 0.  1.
        -11    1    4    4    0    0 -0.84678064699E-02 -0.75999342450E-02  0.45311244916E-01  0.46720796052E-01  0.51100000000E-03 0. -1.
         11    1    4    4    0    0 -0.21226801289E-01  0.11163082415E-01  0.83080752796E-01  0.86474644308E-01  0.51100000000E-03 0.  1.
</event>
<event>
 8    1  0.1093753E+005  0.1043930E+01  0.7957747E-01            NaN
         13   -1    0    0    0    0  0.00000000000E+00  0.00000000000E+00  0.74505805969E-08  0.10566000000E+00  0.10566000000E+00 0. -1.
     999900   -1    0    0    0    0 -0.00000000000E+00 -0.00000000000E+00 -0.74505805969E-08  0.93827000000E+00  0.93827000000E+00 0. -1.
     999902    2    1    2    0    0  0.12535552365E-01 -0.19341411765E-01 -0.31043305529E-02  0.10206734493E+01  0.10204084589E+01 0.  0.
     999903    2    3    3    0    0  0.45218886628E-01  0.10197255635E+00  0.62488449355E-01  0.12933305867E+00  0.19470074631E-01 0.  0.
         14    1    1    2    0    0 -0.12535552365E-01  0.19341411765E-01  0.31043305529E-02  0.23256550697E-01  0.00000000000E+00 0. -1.
     999901    1    3    3    0    0 -0.32683334263E-01 -0.12131396811E+00 -0.65592779908E-01  0.89134039063E+00  0.88000000000E+00 0. -1.
        -11    1    4    4    0    0  0.34851116091E-01  0.55161781370E-01  0.34394888370E-01  0.73761045842E-01  0.51100000000E-03 0.  1.
         11    1    4    4    0    0  0.10367770536E-01  0.46810774978E-01  0.28093560985E-01  0.55572012828E-01  0.51100000000E-03 0. -1.
</event>
<event>
 8    1  0.1093753E+005  0.1043930E+01  0.7957747E-01            NaN
         13   -1    0    0    0    0  0.00000000000E+00  0.00000000000E+00  0.74505805969E-08  0.10566000000E+00  0.10566000000E+00 0. -1.
     999900   -1    0    0    0    0 -0.00000000000E+00 -0.00000000000E+00 -0.74505805969E-08  0.93827000000E+00  0.93827000000E+00 0. -1.
     999902    2    1    2    0    0  0.23873526997E-02 -0.19811197719E-01  0.12627829836E-01  0.10203154898E+01  0.10200421822E+01 0.  0.
     999903    2    3    3    0    0  0.46501274632E-02  0.12646503515E+00  0.40342002048E-02  0.12819682784E+00  0.20077925638E-01 0.  0.
         14    1    1    2    0    0 -0.23873526997E-02  0.19811197719E-01 -0.12627829836E-01  0.23614510250E-01  0.00000000000E+00 0. -1.
     999901    1    3    3    0    0 -0.22627747635E-02 -0.14627623287E+00  0.85936296312E-02  0.89211866191E+00  0.88000000000E+00 0. -1.
        -11    1    4    4    0    0  0.10510076059E-02  0.75013702789E-01  0.12093894189E-01  0.75991339117E-01  0.51100000000E-03 0. -1.
         11    1    4    4    0    0  0.35991198573E-02  0.51451332357E-01 -0.80596939846E-02  0.52205488727E-01  0.51100000000E-03 0.  1.
</event>
<event>
 8    1  0.1093753E+005  0.1043930E+01  0.7957747E-01            NaN
         13   -1    0    0    0    0  0.00000000000E+00  0.00000000000E+00  0.74505805969E-08  0.10566000000E+00  0.10566000000E+00 0.  1.
     999900   -1    0    0    0    0 -0.00000000000E+00 -0.00000000000E+00 -0.74505805969E-08  0.93827000000E+00  0.93827000000E+00 0.  1.
     999902    2    1    2    0    0 -0.16931473453E-01 -0.83057397408E-02 -0.12585917670E-01  0.10212569890E+01  0.10210052752E+01 0.  0.
     999903    2    3    3    0    0 -0.88852593842E-01  0.15561529668E-01  0.93848960695E-01  0.13161061121E+00  0.19410845486E-01 0.  0.
         14    1    1    2    0    0  0.16931473453E-01  0.83057397408E-02  0.12585917670E-01  0.22673011038E-01  0.00000000000E+00 0.  1.
     999901    1    3    3    0    0  0.71921120389E-01 -0.23867269409E-01 -0.10643487837E+00  0.88964637775E+00  0.88000000000E+00 0.  1.
        -11    1    4    4    0    0 -0.39978217244E-01 -0.15838700767E-02  0.47470369525E-01  0.62084326543E-01  0.51100000000E-03 0.  1.
         11    1    4    4    0    0 -0.48874376598E-01  0.17145399745E-01  0.46378591171E-01  0.69526284672E-01  0.51100000000E-03 0. -1.
</event>
<event>
 8    1  0.1093753E+005  0.1043930E+01  0.7957747E-01            NaN
         13   -1    0    0    0    0  0.00000000000E+00  0.00000000000E+00  0.74505805969E-08  0.10566000000E+00  0.10566000000E+00 0. -1.
     999900   -1    0    0    0    0 -0.00000000000E+00 -0.00000000000E+00 -0.74505805969E-08  0.93827000000E+00  0.93827000000E+00 0.  1.
     999902    2    1    2    0    0 -0.36377886200E-02  0.25719143574E-02 -0.23894716470E-01  0.10196235045E+01  0.10193337457E+01 0.  0.
     999903    2    3    3    0    0 -0.10972769041E+00 -0.43537061230E-01  0.48300404467E-01  0.12912182543E+00  0.20096641198E-01 0.  0.
         14    1    1    2    0    0  0.36377886200E-02 -0.25719143574E-02  0.23894716470E-01  0.24306495525E-01  0.00000000000E+00 0. -1.
     999901    1    3    3    0    0  0.10608990179E+00  0.46108975587E-01 -0.72195120937E-01  0.89050167904E+00  0.88000000000E+00 0.  1.
        -11    1    4    4    0    0 -0.67343875770E-01 -0.22289601251E-01  0.19205036397E-01  0.73492302125E-01  0.51100000000E-03 0.  1.
         11    1    4    4    0    0 -0.42383814642E-01 -0.21247459979E-01  0.29095368070E-01  0.55629523307E-01  0.51100000000E-03 0. -1.
</event>
<event>
 8    1  0.1093753E+005  0.1043930E+01  0.7957747E-01            NaN
         13   -1    0    0    0    0  0.00000000000E+00  0.00000000000E+00  0.74505805969E-08  0.10566000000E+00  0.10566000000E+00 0. -1.
     999900   -1    0    0    0    0 -0.00000000000E+00 -0.00000000000E+00 -0.74505805969E-08  0.93827000000E+00  0.93827000000E+00 0. -1.
     999902    2    1    2    0    0 -0.99059705094E-02  0.22545400897E-01 -0.49839659706E-02  0.10188050469E+01  0.10184951940E+01 0.  0.
     999903    2    3    3    0    0  0.10571724527E+00 -0.64669790764E-01  0.17400191892E-01  0.12668607038E+00  0.19704719361E-01 0.  0.
         14    1    1    2    0    0  0.99059705094E-02 -0.22545400897E-01  0.49839659706E-02  0.25124953137E-01  0.00000000000E+00 0.  1.
     999901    1    3    3    0    0 -0.11562321578E+00  0.87215191662E-01 -0.22384157862E-01  0.89211897649E+00  0.88000000000E+00 0. -1.
        -11    1    4    4    0    0  0.34982666474E-01 -0.15169031324E-01 -0.20411019366E-02  0.38187873508E-01  0.51100000000E-03 0.  1.
         11    1    4    4    0    0  0.70734578794E-01 -0.49500759440E-01  0.19441293828E-01  0.88498196869E-01  0.51100000000E-03 0. -1.
</event>
<event>
 8    1  0.1093753E+005  0.1043930E+01  0.7957747E-01            NaN
         13   -1    0    0    0    0  0.00000000000E+00  0.00000000000E+00  0.74505805969E-08  0.10566000000E+00  0.10566000000E+00 0. -1.
     999900   -1    0    0    0    0 -0.00000000000E+00 -0.00000000000E+00 -0.74505805969E-08  0.93827000000E+00  0.93827000000E+00 0.  1.
     999902    2    1    2    0    0  0.10823411614E-01  0.10393093723E-03 -0.15884369573E-01  0.10247083914E+01  0.10245280949E+01 0.  0.
     999903    2    3    3    0    0 -0.18749084146E-01  0.20040353369E-01  0.12787797933E+00  0.13232976861E+00  0.20130726352E-01 0.  0.
         14    1    1    2    0    0 -0.10823411614E-01 -0.10393093723E-03  0.15884369573E-01  0.19221608604E-01  0.00000000000E+00 0. -1.
     999901    1    3    3    0    0  0.29572495760E-01 -0.19936422432E-01 -0.14376234890E+00  0.89237862279E+00  0.88000000000E+00 0.  1.
        -11    1    4    4    0    0 -0.42886131862E-02  0.63185159258E-02  0.81340976692E-01  0.81700253713E-01  0.51100000000E-03 0.  1.
         11    1    4    4    0    0 -0.14460470960E-01  0.13721837443E-01  0.46537002637E-01  0.50629514896E-01  0.51100000000E-03 0. -1.
</event>
<event>
 8    1  0.1093753E+005  0.1043930E+01  0.7957747E-01            NaN
         13   -1    0    0    0    0  0.00000000000E+00  0.00000000000E+00  0.74505805969E-08  0.10566000000E+00  0.10566000000E+00 0. -1.
     999900   -1    0    0    0    0 -0.00000000000E+00 -0.00000000000E+00 -0.74505805969E-08  0.93827000000E+00  0.93827000000E+00 0. -1.
     999902    2    1    2    0    0  0.13557883015E-01 -0.14461718938E-01 -0.13175635426E-01  0.10201275868E+01  0.10198498607E+01 0.  0.
     999903    2    3    3    0    0 -0.22908379947E-01  0.12261933480E+00  0.21585408043E-01  0.12809096546E+00  0.19521025878E-01 0.  0.
         14    1    1    2    0    0 -0.13557883015E-01  0.14461718938E-01  0.13175635426E-01  0.23802413226E-01  0.00000000000E+00 0. -1.
     999901    1    3    3    0    0  0.36466262963E-01 -0.13708105374E+00 -0.34761043470E-01  0.89203662132E+00  0.88000000000E+00 0. -1.
        -11    1    4    4    0    0 -0.23313975901E-01  0.73516264010E-01  0.14443832331E-01  0.78466986432E-01  0.51100000000E-03 0.  1.
         11    1    4    4    0    0  0.40559595373E-03  0.49103070794E-01  0.71415757122E-02  0.49623979023E-01  0.51100000000E-03 0. -1.
</event>
<event>
 8    1  0.1093753E+005  0.1043930E+01  0.7957747E-01            NaN
         13   -1    0    0    0    0  0.00000000000E+00  0.00000000000E+00  0.74505805969E-08  0.10566000000E+00  0.10566000000E+00 0.  1.
     999900   -1    0    0    0    0 -0.00000000000E+00 -0.00000000000E+00 -0.74505805969E-08  0.93827000000E+00  0.93827000000E+00 0.  1.
     999902    2    1    2    0    0  0.12722476383E-01 -0.60273372443E-02 -0.19674238746E-01  0.10197377312E+01  0.10194507220E+01 0.  0.
     999903    2    3    3    0    0 -0.11749321477E+00  0.38120365401E-01  0.26493706485E-01  0.12786519264E+00  0.19742675317E-01 0.  0.
         14    1    1    2    0    0 -0.12722476383E-01  0.60273372443E-02  0.19674238746E-01  0.24192268803E-01  0.00000000000E+00 0.  1.
     999901    1    3    3    0    0  0.13021569116E+00 -0.44147702646E-01 -0.46167945231E-01  0.89187253856E+00  0.88000000000E+00 0.  1.
        -11    1    4    4    0    0 -0.83271207536E-01  0.20082169682E-01  0.24635790789E-01  0.89132322154E-01  0.51100000000E-03 0.  1.
         11    1    4    4    0    0 -0.34222007236E-01  0.18038195720E-01  0.18579156959E-02  0.38732870483E-01  0.51100000000E-03 0. -1.
</event>
<event>
 8    1  0.1093753E+005  0.1043930E+01  0.7957747E-01            NaN
         13   -1    0    0    0    0  0.00000000000E+00  0.00000000000E+00  0.74505805969E-08  0.10566000000E+00  0.10566000000E+00 0.  1.
     999900   -1    0    0    0    0 -0.00000000000E+00 -0.00000000000E+00 -0.74505805969E-08  0.93827000000E+00  0.93827000000E+00 0.  1.
     999902    2    1    2    0    0 -0.86829975300E-02  0.25639468840E-01  0.23857804829E-01  0.10078471556E+01  0.10072010313E+01 0.  0.
     999903    2    3    3    0    0  0.22551921407E-01  0.11834316015E+00  0.17791859173E-02  0.12215135006E+00  0.20102092065E-01 0.  0.
         14    1    1    2    0    0  0.86829975300E-02 -0.25639468840E-01 -0.23857804829E-01  0.36082844397E-01  0.00000000000E+00 0. -1.
     999901    1    3    3    0    0 -0.31234918937E-01 -0.92703691310E-01  0.22078618912E-01  0.88569580554E+00  0.88000000000E+00 0. -1.
        -11    1    4    4    0    0  0.63309910462E-02  0.46509642471E-01  0.10171599910E-01  0.48030728249E-01  0.51100000000E-03 0.  1.
         11    1    4    4    0    0  0.16220930360E-01  0.71833517680E-01 -0.83924139931E-02  0.74120621811E-01  0.51100000000E-03 0. -1.
</event>
<event>
 8    1  0.1093753E+005  0.1043930E+01  0.7957747E-01            NaN
         13   -1    0    0    0    0  0.00000000000E+00  0.00000000000E+00  0.74505805969E-08  0.10566000000E+00  0.10566000000E+00 0. -1.
     999900   -1    0    0    0    0 -0.00000000000E+00 -0.00000000000E+00 -0.74505805969E-08  0.93827000000E+00  0.93827000000E+00 0.  1.
     999902    2    1    2    0    0 -0.92097959646E-02 -0.94801041045E-02  0.20619167768E-01  0.10194383117E+01  0.10191440667E+01 0.  0.
     999903    2    3    3    0    0 -0.20970651739E-01  0.59468697704E-01  0.11375338202E+00  0.13176368841E+00  0.21107899525E-01 0.  0.
         14    1    1    2    0    0  0.92097959646E-02  0.94801041045E-02 -0.20619167768E-01  0.24491688284E-01  0.00000000000E+00 0.  1.
     999901    1    3    3    0    0  0.11760855775E-01 -0.68948801808E-01 -0.93134214247E-01  0.88767462331E+00  0.88000000000E+00 0.  1.
        -11    1    4    4    0    0  0.44323239450E-03  0.20310871052E-01  0.49690310520E-01  0.53685342677E-01  0.51100000000E-03 0.  1.
         11    1    4    4    0    0 -0.21413884134E-01  0.39157826652E-01  0.64063071495E-01  0.78078345732E-01  0.51100000000E-03 0. -1.
</event>
<event>
 8    1  0.1093753E+005  0.1043930E+01  0.7957747E-01            NaN
         13   -1    0    0    0    0  0.00000000000E+00  0.00000000000E+00  0.74505805969E-08  0.10566000000E+00  0.10566000000E+00 0.  1.
     999900   -1    0    0    0    0 -0.00000000000E+00 -0.00000000000E+00 -0.74505805969E-08  0.93827000000E+00  0.93827000000E+00 0.  1.
     999902    2    1    2    0    0  0.77348898303E-03 -0.18050605132E-01  0.14599204819E-01  0.10207015818E+01  0.10204372395E+01 0.  0.
     999903    2    3    3    0    0  0.85156589842E-01  0.86820682213E-01  0.41557768067E-01  0.13005841040E+00  0.19966631571E-01 0.  0.
         14    1    1    2    0    0 -0.77348898303E-03  0.18050605132E-01 -0.14599204819E-01  0.23228418203E-01  0.00000000000E+00 0. -1.
     999901    1    3    3    0    0 -0.84383100859E-01 -0.10487128735E+00 -0.26958563248E-01  0.89064317139E+00  0.88000000000E+00 0. -1.
        -11    1    4    4    0    0  0.19896050668E-01  0.32174490565E-01  0.87247689953E-02  0.38825679522E-01  0.51100000000E-03 0.  1.
         11    1    4    4    0    0  0.65260539175E-01  0.54646191647E-01  0.32832999071E-01  0.91232730881E-01  0.51100000000E-03 0. -1.
</event>
<event>
 8    1  0.1093753E+005  0.1043930E+01  0.7957747E-01            NaN
         13   -1    0    0    0    0  0.00000000000E+00  0.00000000000E+00  0.74505805969E-08  0.10566000000E+00  0.10566000000E+00 0.  1.
     999900   -1    0    0    0    0 -0.00000000000E+00 -0.00000000000E+00 -0.74505805969E-08  0.93827000000E+00  0.93827000000E+00 0.  1.
     999902    2    1    2    0    0  0.10259782963E-01  0.22354202179E-01  0.15068503610E-01  0.10150850125E+01  0.10146750955E+01 0.  0.
     999903    2    3    3    0    0 -0.79199481208E-01 -0.37969917239E-01 -0.83832013678E-01  0.12299573916E+00  0.19643647714E-01 0.  0.
         14    1    1    2    0    0 -0.10259782963E-01 -0.22354202179E-01 -0.15068503610E-01  0.28844987477E-01  0.00000000000E+00 0. -1.
     999901    1    3    3    0    0  0.89459264170E-01  0.60324119417E-01  0.98900517289E-01  0.89208927336E+00  0.88000000000E+00 0. -1.
        -11    1    4    4    0    0 -0.27258490664E-01 -0.20451090992E-01 -0.23043217957E-01  0.41140289873E-01  0.51100000000E-03 0.  1.
         11    1    4    4    0    0 -0.51940990543E-01 -0.17518826247E-01 -0.60788795722E-01  0.81855449287E-01  0.51100000000E-03 0. -1.
</event>
<event>
 8    1  0.1093753E+005  0.1043930E+01  0.7957747E-01            NaN
         13   -1    0    0    0    0  0.00000000000E+00  0.00000000000E+00  0.74505805969E-08  0.10566000000E+00  0.10566000000E+00 0.  1.
     999900   -1    0    0    0    0 -0.00000000000E+00 -0.00000000000E+00 -0.74505805969E-08  0.93827000000E+00  0.93827000000E+00 0. -1.
     999902    2    1    2    0    0 -0.18624137365E-01 -0.19753093931E-01  0.35106393071E-02  0.10165554169E+01  0.10161867682E+01 0.  0.
     999903    2    3    3    0    0 -0.89431253935E-01 -0.79994743677E-01 -0.46557794686E-01  0.13024308356E+00  0.19963075232E-01 0.  0.
         14    1    1    2    0    0  0.18624137365E-01  0.19753093931E-01 -0.35106393071E-02  0.27374583116E-01  0.00000000000E+00 0. -1.
     999901    1    3    3    0    0  0.70807116569E-01  0.60241649746E-01  0.50068433993E-01  0.88631233332E+00  0.88000000000E+00 0.  1.
        -11    1    4    4    0    0 -0.39474949445E-01 -0.23102234031E-01 -0.14100429792E-01  0.47865103073E-01  0.51100000000E-03 0.  1.
         11    1    4    4    0    0 -0.49956304490E-01 -0.56892509645E-01 -0.32457364894E-01  0.82377980486E-01  0.51100000000E-03 0. -1.
</event>
<event>
 8    1  0.1093753E+005  0.1043930E+01  0.7957747E-01            NaN
         13   -1    0    0    0    0  0.00000000000E+00  0.00000000000E+00  0.74505805969E-08  0.10566000000E+00  0.10566000000E+00 0. -1.
     999900   -1    0    0    0    0 -0.00000000000E+00 -0.00000000000E+00 -0.74505805969E-08  0.93827000000E+00  0.93827000000E+00 0.  1.
     999902    2    1    2    0    0 -0.13494366612E-01 -0.31558639900E-01 -0.48390368946E-02  0.10092678887E+01  0.10086724985E+01 0.  0.
     999903    2    3    3    0    0 -0.30594909021E-01  0.76987762332E-01 -0.83440289502E-01  0.11895732102E+00  0.18038799993E-01 0.  0.
         14    1    1    2    0    0  0.13494366612E-01  0.31558639900E-01  0.48390368946E-02  0.34662111313E-01  0.00000000000E+00 0.  1.
     999901    1    3    3    0    0  0.17100542408E-01 -0.10854640223E+00  0.78601252607E-01  0.89031056767E+00  0.88000000000E+00 0. -1.
        -11    1    4    4    0    0 -0.13574506553E-01  0.51593559401E-01 -0.60947649269E-01  0.81000244890E-01  0.51100000000E-03 0.  1.
         11    1    4    4    0    0 -0.17020402468E-01  0.25394202931E-01 -0.22492640233E-01  0.37957076130E-01  0.51100000000E-03 0. -1.
</event>
<event>
 8    1  0.1093753E+005  0.1043930E+01  0.7957747E-01            NaN
         13   -1    0    0    0    0  0.00000000000E+00  0.00000000000E+00  0.74505805969E-08  0.10566000000E+00  0.10566000000E+00 0.  1.
     999900   -1    0    0    0    0 -0.00000000000E+00 -0.00000000000E+00 -0.74505805969E-08  0.93827000000E+00  0.93827000000E+00 0. -1.
     999902    2    1    2    0    0 -0.55902546347E-02  0.22789986355E-01 -0.16425550497E-02  0.10204069812E+01  0.10201358120E+01 0.  0.
     999903    2    3    3    0    0  0.93419817129E-01  0.79970460187E-01  0.42925998188E-01  0.13189195219E+00  0.20743890580E-01 0.  0.
         14    1    1    2    0    0  0.55902546347E-02 -0.22789986355E-01  0.16425550497E-02  0.23523018769E-01  0.00000000000E+00 0. -1.
     999901    1    3    3    0    0 -0.99010071764E-01 -0.57180473833E-01 -0.44568553238E-01  0.88851502904E+00  0.88000000000E+00 0. -1.
        -11    1    4    4    0    0  0.16799540060E-01  0.50646021367E-02  0.56751560538E-02  0.18448394463E-01  0.51100000000E-03 0.  1.
         11    1    4    4    0    0  0.76620277069E-01  0.74905858050E-01  0.37250842135E-01  0.11344355772E+00  0.51100000000E-03 0. -1.
</event>
<event>
 8    1  0.1093753E+005  0.1043930E+01  0.7957747E-01            NaN
         13   -1    0    0    0    0  0.00000000000E+00  0.00000000000E+00  0.74505805969E-08  0.10566000000E+00  0.10566000000E+00 0.  1.
     999900   -1    0    0    0    0 -0.00000000000E+00 -0.00000000000E+00 -0.74505805969E-08  0.93827000000E+00  0.93827000000E+00 0.  1.
     999902    2    1    2    0    0 -0.92678279891E-04 -0.23423282954E-01 -0.71797560369E-02  0.10194308639E+01  0.10191364377E+01 0.  0.
     999903    2    3    3    0    0  0.20587861343E-01 -0.10754872439E+00 -0.72232318869E-01  0.13278741213E+00  0.20600989734E-01 0.  0.
         14    1    1    2    0    0  0.92678279891E-04  0.23423282954E-01  0.71797560369E-02  0.24499136114E-01  0.00000000000E+00 0.  1.
     999901    1    3    3    0    0 -0.20680539623E-01  0.84125441434E-01  0.65052562832E-01  0.88664345176E+00  0.88000000000E+00 0. -1.
        -11    1    4    4    0    0  0.15507734035E-01 -0.55399927673E-01 -0.48577575797E-01  0.75297302690E-01  0.51100000000E-03 0.  1.
         11    1    4    4    0    0  0.50801273082E-02 -0.52148796715E-01 -0.23654743072E-01  0.57490109437E-01  0.51100000000E-03 0. -1.
</event>
<event>
 8    1  0.1093753E+005  0.1043930E+01  0.7957747E-01            NaN
         13   -1    0    0    0    0  0.00000000000E+00  0.00000000000E+00  0.74505805969E-08  0.10566000000E+00  0.10566000000E+00 0.  1.
     999900   -1    0    0    0    0 -0.00000000000E+00 -0.00000000000E+00 -0.74505805969E-08  0.93827000000E+00  0.93827000000E+00 0. -1.
     999902    2    1    2    0    0  0.41354604354E-02 -0.19785559877E-01 -0.13688710816E-01  0.10195178879E+01  0.10192255749E+01 0.  0.
     999903    2    3    3    0    0  0.12640453710E+00  0.22021976091E-01  0.16791422336E-02  0.12994845944E+00  0.20511171629E-01 0.  0.
         14    1    1    2    0    0 -0.41354604354E-02  0.19785559877E-01  0.13688710816E-01  0.24412112085E-01  0.00000000000E+00 0. -1.
     999901    1    3    3    0    0 -0.12226907666E+00 -0.41807535968E-01 -0.15367853049E-01  0.88956942848E+00  0.88000000000E+00 0. -1.
        -11    1    4    4    0    0  0.47666658790E-01  0.15771868711E-01  0.74054611887E-02  0.50753957277E-01  0.51100000000E-03 0.  1.
         11    1    4    4    0    0  0.78737878309E-01  0.62501073803E-02 -0.57263189551E-02  0.79194502162E-01  0.51100000000E-03 0. -1.
</event>
<event>
 8    1  0.1093753E+005  0.1043930E+01  0.7957747E-01            NaN
         13   -1    0    0    0    0  0.00000000000E+00  0.00000000000E+00  0.74505805969E-08  0.10566000000E+00  0.10566000000E+00 0.  1.
     999900   -1    0    0    0    0 -0.00000000000E+00 -0.00000000000E+00 -0.74505805969E-08  0.93827000000E+00  0.93827000000E+00 0.  1.
     999902    2    1    2    0    0 -0.20301516579E-01  0.11355644306E-01  0.44380980679E-02  0.10202488060E+01  0.10199739346E+01 0.  0.
     999903    2    3    3    0    0 -0.43586222765E-01 -0.94951347910E-01  0.76087509891E-01  0.13065508284E+00  0.19129145979E-01 0.  0.
         14    1    1    2    0    0  0.20301516579E-01 -0.11355644306E-01 -0.44380980679E-02  0.23681193962E-01  0.00000000000E+00 0. -1.
     999901    1    3    3    0    0  0.23284706185E-01  0.10630699222E+00 -0.71649411823E-01  0.88959372320E+00  0.88000000000E+00 0.  1.
        -11    1    4    4    0    0 -0.97651779772E-02 -0.31169337030E-01  0.33705176368E-01  0.46938111454E-01  0.51100000000E-03 0.  1.
         11    1    4    4    0    0 -0.33821044788E-01 -0.63782010880E-01  0.42382333523E-01  0.83716971387E-01  0.51100000000E-03 0. -1.
</event>
<event>
 8    1  0.1093753E+005  0.1043930E+01  0.7957747E-01            NaN
         13   -1    0    0    0    0  0.00000000000E+00  0.00000000000E+00  0.74505805969E-08  0.10566000000E+00  0.10566000000E+00 0.  1.
     999900   -1    0    0    0    0 -0.00000000000E+00 -0.00000000000E+00 -0.74505805969E-08  0.93827000000E+00  0.93827000000E+00 0. -1.
     999902    2    1    2    0    0  0.61863541448E-02 -0.16314396709E-01  0.15957214009E-01  0.10202854827E+01  0.10200114720E+01 0.  0.
     999903    2    3    3    0    0  0.10784761934E-01  0.67537482242E-01  0.11028249795E+00  0.13126942993E+00  0.19794223493E-01 0.  0.
         14    1    1    2    0    0 -0.61863541448E-02  0.16314396709E-01 -0.15957214009E-01  0.23644517261E-01  0.00000000000E+00 0. -1.
     999901    1    3    3    0    0 -0.45984077894E-02 -0.83851878951E-01 -0.94325283938E-01  0.88901605281E+00  0.88000000000E+00 0. -1.
        -11    1    4    4    0    0  0.14024327117E-01  0.32481135880E-01  0.63829503862E-01  0.72980631837E-01  0.51100000000E-03 0. -1.
         11    1    4    4    0    0 -0.32395651831E-02  0.35056346362E-01  0.46452994085E-01  0.58288798095E-01  0.51100000000E-03 0.  1.
</event>
<event>
 8    1  0.1093753E+005  0.1043930E+01  0.7957747E-01            NaN
         13   -1    0    0    0    0  0.00000000000E+00  0.00000000000E+00  0.74505805969E-08  0.10566000000E+00  0.10566000000E+00 0. -1.
     999900   -1    0    0    0    0 -0.00000000000E+00 -0.00000000000E+00 -0.74505805969E-08  0.93827000000E+00  0.93827000000E+00 0. -1.
     999902    2    1    2    0    0  0.42057576766E-03  0.51667967948E-02  0.22735550178E-01  0.10206109538E+01  0.10203445208E+01 0.  0.
     999903    2    3    3    0    0 -0.87750424610E-01 -0.92732461575E-01  0.17259511433E-01  0.13078604008E+00  0.22531113969E-01 0.  0.
         14    1    1    2    0    0 -0.42057576766E-03 -0.51667967948E-02 -0.22735550178E-01  0.23319046186E-01  0.00000000000E+00 0.  1.
     999901    1    3    3    0    0  0.88171000378E-01  0.97899258370E-01  0.54760387453E-02  0.88982491373E+00  0.88000000000E+00 0. -1.
        -11    1    4    4    0    0 -0.84445256393E-01 -0.81639521535E-01  0.19267008449E-01  0.11902727225E+00  0.51100000000E-03 0. -1.
         11    1    4    4    0    0 -0.33051682172E-02 -0.11092940041E-01 -0.20074970161E-02  0.11758767833E-01  0.51100000000E-03 0.  1.
</event>
<event>
 8    1  0.1093753E+005  0.1043930E+01  0.7957747E-01            NaN
         13   -1    0    0    0    0  0.00000000000E+00  0.00000000000E+00  0.74505805969E-08  0.10566000000E+00  0.10566000000E+00 0.  1.
     999900   -1    0    0    0    0 -0.00000000000E+00 -0.00000000000E+00 -0.74505805969E-08  0.93827000000E+00  0.93827000000E+00 0.  1.
     999902    2    1    2    0    0  0.22230082908E-01  0.39224370951E-02 -0.62674250793E-02  0.10205026076E+01  0.10202336641E+01 0.  0.
     999903    2    3    3    0    0  0.12673682356E+00 -0.35661891981E-01 -0.84191581738E-02  0.13343259460E+00  0.19984546365E-01 0.  0.
         14    1    1    2    0    0 -0.22230082908E-01 -0.39224370951E-02  0.62674250793E-02  0.23427392428E-01  0.00000000000E+00 0.  1.
     999901    1    3    3    0    0 -0.10450674065E+00  0.39584329076E-01  0.21517330946E-02  0.88707001297E+00  0.88000000000E+00 0. -1.
        -11    1    4    4    0    0  0.10122419680E+00 -0.36135657369E-01 -0.41999063969E-02  0.10756404644E+00  0.51100000000E-03 0. -1.
         11    1    4    4    0    0  0.25512626754E-01  0.47376538812E-03 -0.42192517769E-02  0.25868548164E-01  0.51100000000E-03 0.  1.
</event>
<event>
 8    1  0.1093753E+005  0.1043930E+01  0.7957747E-01            NaN
         13   -1    0    0    0    0  0.00000000000E+00  0.00000000000E+00  0.74505805969E-08  0.10566000000E+00  0.10566000000E+00 0. -1.
     999900   -1    0    0    0    0 -0.00000000000E+00 -0.00000000000E+00 -0.74505805969E-08  0.93827000000E+00  0.93827000000E+00 0.  1.
     999902    2    1    2    0    0 -0.18400849834E-01  0.47335578283E-03  0.25471952657E-01  0.10125033280E+01  0.10120154907E+01 0.  0.
     999903    2    3    3    0    0 -0.25190062772E-01  0.43974001457E-01 -0.10832492450E+00  0.12130188954E+00  0.20288101725E-01 0.  0.
         14    1    1    2    0    0  0.18400849834E-01 -0.47335578283E-03 -0.25471952657E-01  0.31426671991E-01  0.00000000000E+00 0.  1.
     999901    1    3    3    0    0  0.67892129376E-02 -0.43500645674E-01  0.13379687716E+00  0.89120143847E+00  0.88000000000E+00 0. -1.
        -11    1    4    4    0    0 -0.56942974099E-02  0.25594689138E-01 -0.39195245194E-01  0.47159744506E-01  0.51100000000E-03 0.  1.
         11    1    4    4    0    0 -0.19495765362E-01  0.18379312319E-01 -0.69129679308E-01  0.74142145037E-01  0.51100000000E-03 0. -1.
</event>
<event>
 8    1  0.1093753E+005  0.1043930E+01  0.7957747E-01            NaN
         13   -1    0    0    0    0  0.00000000000E+00  0.00000000000E+00  0.74505805969E-08  0.10566000000E+00  0.10566000000E+00 0. -1.
     999900   -1    0    0    0    0 -0.00000000000E+00 -0.00000000000E+00 -0.74505805969E-08  0.93827000000E+00  0.93827000000E+00 0. -1.
     999902    2    1    2    0    0  0.23946300954E-02 -0.18800000344E-01 -0.13213104045E-01  0.10208267451E+01  0.10205652763E+01 0.  0.
     999903    2    3    3    0    0 -0.11671635546E+00 -0.57722318865E-01 -0.43948770198E-02  0.13190597540E+00  0.20622746562E-01 0.  0.
         14    1    1    2    0    0 -0.23946300954E-02  0.18800000344E-01  0.13213104045E-01  0.23103254852E-01  0.00000000000E+00 0. -1.
     999901    1    3    3    0    0  0.11911098555E+00  0.38922318521E-01 -0.88182270256E-02  0.88892076975E+00  0.88000000000E+00 0.  1.
        -11    1    4    4    0    0 -0.19493106125E-01 -0.13172812515E-01  0.64831564930E-02  0.24408945390E-01  0.51100000000E-03 0. -1.
         11    1    4    4    0    0 -0.97223249334E-01 -0.44549506351E-01 -0.10878033513E-01  0.10749703001E+00  0.51100000000E-03 0.  1.
</event>
<event>
 8    1  0.1093753E+005  0.1043930E+01  0.7957747E-01            NaN
         13   -1    0    0    0    0  0.00000000000E+00  0.00000000000E+00  0.74505805969E-08  0.10566000000E+00  0.10566000000E+00 0. -1.
     999900   -1    0    0    0    0 -0.00000000000E+00 -0.00000000000E+00 -0.74505805969E-08  0.93827000000E+00  0.93827000000E+00 0. -1.
     999902    2    1    2    0    0 -0.13773395926E-01  0.23236453055E-01  0.51793565858E-02  0.10164260926E+01  0.10160539045E+01 0.  0.
     999903    2    3    3    0    0 -0.25065366303E-01  0.64638506777E-01 -0.10612039107E+00  0.12837808015E+00  0.20322030290E-01 0.  0.
         14    1    1    2    0    0  0.13773395926E-01 -0.23236453055E-01 -0.51793565858E-02  0.27503907369E-01  0.00000000000E+00 0.  1.
     999901    1    3    3    0    0  0.11291970377E-01 -0.41402053721E-01  0.11129974766E+00  0.88804801248E+00  0.88000000000E+00 0.  1.
        -11    1    4    4    0    0 -0.18839961450E-01  0.42204780280E-01 -0.52672282064E-01  0.70077229146E-01  0.51100000000E-03 0.  1.
         11    1    4    4    0    0 -0.62254048524E-02  0.22433726497E-01 -0.53448109007E-01  0.58300851002E-01  0.51100000000E-03 0. -1.
</event>
<event>
 8    1  0.1093753E+005  0.1043930E+01  0.7957747E-01            NaN
         13   -1    0    0    0    0  0.00000000000E+00  0.00000000000E+00  0.74505805969E-08  0.10566000000E+00  0.10566000000E+00 0.  1.
     999900   -1    0    0    0    0 -0.00000000000E+00 -0.00000000000E+00 -0.74505805969E-08  0.93827000000E+00  0.93827000000E+00 0.  1.
     999902    2    1    2    0    0  0.18955318886E-01  0.15799303823E-02  0.14018460291E-01  0.10203012564E+01  0.10200276155E+01 0.  0.
     999903    2    3    3    0    0 -0.12121670828E+00 -0.33051332828E-01 -0.14826961579E-01  0.12806833843E+00  0.19894208961E-01 0.  0.
         14    1    1    2    0    0 -0.18955318886E-01 -0.15799303823E-02 -0.14018460291E-01  0.23628743576E-01  0.00000000000E+00 0. -1.
     999901    1    3    3    0    0  0.14017202717E+00  0.34631263211E-01  0.28845421870E-01  0.89223291800E+00  0.88000000000E+00 0. -1.
        -11    1    4    4    0    0 -0.90392588949E-01 -0.15478511988E-01 -0.98882969585E-02  0.92241227269E-01  0.51100000000E-03 0. -1.
         11    1    4    4    0    0 -0.30824119331E-01 -0.17572820841E-01 -0.49386646209E-02  0.35827111160E-01  0.51100000000E-03 0.  1.
</event>
<event>
 8    1  0.1093753E+005  0.1043930E+01  0.7957747E-01            NaN
         13   -1    0    0    0    0  0.00000000000E+00  0.00000000000E+00  0.74505805969E-08  0.10566000000E+00  0.10566000000E+00 0.  1.
     999900   -1    0    0    0    0 -0.00000000000E+00 -0.00000000000E+00 -0.74505805969E-08  0.93827000000E+00  0.93827000000E+00 0.  1.
     999902    2    1    2    0    0 -0.91372507381E-02 -0.21539472593E-01 -0.46371614085E-02  0.10200775054E+01  0.10197985956E+01 0.  0.
     999903    2    3    3    0    0 -0.59127781381E-02  0.12423059521E+00  0.20296459371E-01  0.12773172306E+00  0.20862528148E-01 0.  0.
         14    1    1    2    0    0  0.91372507381E-02  0.21539472593E-01  0.46371614085E-02  0.23852494556E-01  0.00000000000E+00 0. -1.
     999901    1    3    3    0    0 -0.32244726000E-02 -0.14577006781E+00 -0.24933620779E-01  0.89234578238E+00  0.88000000000E+00 0.  1.
        -11    1    4    4    0    0 -0.89287951970E-03  0.25041392406E-01 -0.42636500119E-02  0.25422596246E-01  0.51100000000E-03 0. -1.
         11    1    4    4    0    0 -0.50198986184E-02  0.99189202807E-01  0.24560109383E-01  0.10230912681E+00  0.51100000000E-03 0.  1.
</event>
<event>
 8    1  0.1093753E+005  0.1043930E+01  0.7957747E-01            NaN
         13   -1    0    0    0    0  0.00000000000E+00  0.00000000000E+00  0.74505805969E-08  0.10566000000E+00  0.10566000000E+00 0. -1.
     999900   -1    0    0    0    0 -0.00000000000E+00 -0.00000000000E+00 -0.74505805969E-08  0.93827000000E+00  0.93827000000E+00 0.  1.
     999902    2    1    2    0    0 -0.17695715375E-02 -0.17542153453E-01 -0.15968889556E-01  0.10201421047E+01  0.10198647213E+01 0.  0.
     999903    2    3    3    0    0 -0.99281115857E-01  0.79574439492E-01 -0.99512301545E-02  0.12942534489E+00  0.21518864575E-01 0.  0.
         14    1    1    2    0    0  0.17695715375E-02  0.17542153453E-01  0.15968889556E-01  0.23787895343E-01  0.00000000000E+00 0. -1.
     999901    1    3    3    0    0  0.97511544320E-01 -0.97116592944E-01 -0.60176594019E-02  0.89071675976E+00  0.88000000000E+00 0.  1.
        -11    1    4    4    0    0 -0.77645150517E-01  0.50326648111E-01 -0.97330574574E-02  0.93040498910E-01  0.51100000000E-03 0. -1.
         11    1    4    4    0    0 -0.21635965340E-01  0.29247791381E-01 -0.21817269708E-03  0.36384845983E-01  0.51100000000E-03 0.  1.
</event>
<event>
 8    1  0.1093753E+005  0.1043930E+01  0.7957747E-01            NaN
         13   -1    0    0    0    0  0.00000000000E+00  0.00000000000E+00  0.74505805969E-08  0.10566000000E+00  0.10566000000E+00 0. -1.
     999900   -1    0    0    0    0 -0.00000000000E+00 -0.00000000000E+00 -0.74505805969E-08  0.93827000000E+00  0.93827000000E+00 0.  1.
     999902    2    1    2    0    0 -0.97557538190E-02 -0.10025364999E-01  0.16535250143E-01  0.10222713488E+01  0.10220418843E+01 0.  0.
     999903    2    3    3    0    0  0.10873132299E+00  0.45843897609E-01  0.55166333205E-01  0.13173615999E+00  0.19670485030E-01 0.  0.
         14    1    1    2    0    0  0.97557538190E-02  0.10025364999E-01 -0.16535250143E-01  0.21658651233E-01  0.00000000000E+00 0.  1.
     999901    1    3    3    0    0 -0.11848707681E+00 -0.55869262608E-01 -0.38631083062E-01  0.89053518878E+00  0.88000000000E+00 0.  1.
        -11    1    4    4    0    0  0.50577743783E-01  0.15063706177E-01  0.33279686820E-01  0.62392484210E-01  0.51100000000E-03 0. -1.
         11    1    4    4    0    0  0.58153579209E-01  0.30780191432E-01  0.21886646384E-01  0.69343675778E-01  0.51100000000E-03 0.  1.
</event>
<event>
 8    1  0.1093753E+005  0.1043930E+01  0.7957747E-01            NaN
         13   -1    0    0    0    0  0.00000000000E+00  0.00000000000E+00  0.74505805969E-08  0.10566000000E+00  0.10566000000E+00 0. -1.
     999900   -1    0    0    0    0 -0.00000000000E+00 -0.00000000000E+00 -0.74505805969E-08  0.93827000000E+00  0.93827000000E+00 0. -1.
     999902    2    1    2    0    0  0.13843493765E-01  0.17715770218E-01 -0.18649385763E-01  0.10147188647E+01  0.10142983210E+01 0.  0.
     999903    2    3    3    0    0 -0.24339191131E-01 -0.66355108036E-01  0.97827389304E-01  0.12225448498E+00  0.19508060217E-01 0.  0.
         14    1    1    2    0    0 -0.13843493765E-01 -0.17715770218E-01  0.18649385763E-01  0.29211135263E-01  0.00000000000E+00 0.  1.
     999901    1    3    3    0    0  0.38182684896E-01  0.84070878255E-01 -0.11647677507E+00  0.89246437975E+00  0.88000000000E+00 0. -1.
        -11    1    4    4    0    0 -0.10818614107E-01 -0.53117848551E-01  0.76161318223E-01  0.93484521501E-01  0.51100000000E-03 0.  1.
         11    1    4    4    0    0 -0.13520577024E-01 -0.13237259486E-01  0.21666071081E-01  0.28769963484E-01  0.51100000000E-03 0. -1.
</event>
<event>
 8    1  0.1093753E+005  0.1043930E+01  0.7957747E-01            NaN
         13   -1    0    0    0    0  0.00000000000E+00  0.00000000000E+00  0.74505805969E-08  0.10566000000E+00  0.10566000000E+00 0.  1.
     999900   -1    0    0    0    0 -0.00000000000E+00 -0.00000000000E+00 -0.74505805969E-08  0.93827000000E+00  0.93827000000E+00 0. -1.
     999902    2    1    2    0    0 -0.27952680774E-02  0.71875144324E-02  0.22481913041E-01  0.10201621583E+01  0.10198852479E+01 0.  0.
     999903    2    3    3    0    0  0.10508407650E+00 -0.64113376845E-01  0.38597445523E-01  0.13056591249E+00  0.20112346476E-01 0.  0.
         14    1    1    2    0    0  0.27952680774E-02 -0.71875144324E-02 -0.22481913041E-01  0.23767841748E-01  0.00000000000E+00 0. -1.
     999901    1    3    3    0    0 -0.10787934457E+00  0.71300891277E-01 -0.16115532482E-01  0.88959624576E+00  0.88000000000E+00 0.  1.
        -11    1    4    4    0    0  0.63674309441E-01 -0.45792183954E-01  0.16378197906E-01  0.80123955729E-01  0.51100000000E-03 0.  1.
         11    1    4    4    0    0  0.41409767055E-01 -0.18321192892E-01  0.22219247617E-01  0.50441956764E-01  0.51100000000E-03 0. -1.
</event>
<event>
 8    1  0.1093753E+005  0.1043930E+01  0.7957747E-01            NaN
         13   -1    0    0    0    0  0.00000000000E+00  0.00000000000E+00  0.74505805969E-08  0.10566000000E+00  0.10566000000E+00 0. -1.
     999900   -1    0    0    0    0 -0.00000000000E+00 -0.00000000000E+00 -0.74505805969E-08  0.93827000000E+00  0.93827000000E+00 0. -1.
     999902    2    1    2    0    0 -0.42080273405E-02  0.20708395356E-01 -0.12392471292E-01  0.10194326843E+01  0.10191383024E+01 0.  0.
     999903    2    3    3    0    0  0.80130564692E-01  0.93679562421E-01 -0.42405104757E-01  0.13188632071E+00  0.19976007328E-01 0.  0.
         14    1    1    2    0    0  0.42080273405E-02 -0.20708395356E-01  0.12392471292E-01  0.24497315710E-01  0.00000000000E+00 0. -1.
     999901    1    3    3    0    0 -0.84338592033E-01 -0.72971167065E-01  0.30012633465E-01  0.88754636358E+00  0.88000000000E+00 0.  1.
        -11    1    4    4    0    0  0.71857014154E-01  0.75929475189E-01 -0.30245296641E-01  0.10882901624E+00  0.51100000000E-03 0.  1.
         11    1    4    4    0    0  0.82735505383E-02  0.17750087232E-01 -0.12159808116E-01  0.23057304475E-01  0.51100000000E-03 0. -1.
</event>
<event>
 8    1  0.1093753E+005  0.1043930E+01  0.7957747E-01            NaN
         13   -1    0    0    0    0  0.00000000000E+00  0.00000000000E+00  0.74505805969E-08  0.10566000000E+00  0.10566000000E+00 0. -1.
     999900   -1    0    0    0    0 -0.00000000000E+00 -0.00000000000E+00 -0.74505805969E-08  0.93827000000E+00  0.93827000000E+00 0. -1.
     999902    2    1    2    0    0 -0.60238020487E-02  0.21974276606E-01 -0.65814593276E-02  0.10202135367E+01  0.10199378363E+01 0.  0.
     999903    2    3    3    0    0 -0.11378822145E+00 -0.34114006122E-01  0.51147515652E-01  0.12999350769E+00  0.13065945381E-01 0.  0.
         14    1    1    2    0    0  0.60238020487E-02 -0.21974276606E-01  0.65814593276E-02  0.23716463277E-01  0.00000000000E+00 0. -1.
     999901    1    3    3    0    0  0.10776441940E+00  0.56088282728E-01 -0.57728974980E-01  0.89022002904E+00  0.88000000000E+00 0. -1.
        -11    1    4    4    0    0 -0.13833708229E-01 -0.71794949257E-02  0.10387061022E-01  0.18736829733E-01  0.51100000000E-03 0.  1.
         11    1    4    4    0    0 -0.99954513220E-01 -0.26934511196E-01  0.40760454630E-01  0.11125667795E+00  0.51100000000E-03 0. -1.
</event>
<event>
 8    1  0.1093753E+005  0.1043930E+01  0.7957747E-01            NaN
         13   -1    0    0    0    0  0.00000000000E+00  0.00000000000E+00  0.74505805969E-08  0.10566000000E+00  0.10566000000E+00 0.  1.
     999900   -1    0    0    0    0 -0.00000000000E+00 -0.00000000000E+00 -0.74505805969E-08  0.93827000000E+00  0.93827000000E+00 0.  1.
     999902    2    1    2    0    0  0.97029991686E-02  0.49431029602E-02 -0.21165041774E-01  0.10201278687E+01  0.10198501493E+01 0.  0.
     999903    2    3    3    0    0  0.84286716299E-01  0.52571811336E-01  0.80834782887E-01  0.12982725155E+00  0.21279267571E-01 0.  0.
         14    1    1    2    0    0 -0.97029991686E-02 -0.49431029602E-02  0.21165041774E-01  0.23802131271E-01  0.00000000000E+00 0.  1.
     999901    1    3    3    0    0 -0.74583717130E-01 -0.47628708376E-01 -0.10199982466E+00  0.89030061718E+00  0.88000000000E+00 0.  1.
        -11    1    4    4    0    0  0.61701422236E-01  0.27027981855E-01  0.56707630027E-01  0.88054492977E-01  0.51100000000E-03 0. -1.
         11    1    4    4    0    0  0.22585294063E-01  0.25543829482E-01  0.24127152860E-01  0.41772758571E-01  0.51100000000E-03 0.  1.
</event>
<event>
 8    1  0.1093753E+005  0.1043930E+01  0.7957747E-01            NaN
         13   -1    0    0    0    0  0.00000000000E+00  0.00000000000E+00  0.74505805969E-08  0.10566000000E+00  0.10566000000E+00 0. -1.
     999900   -1    0    0    0    0 -0.00000000000E+00 -0.00000000000E+00 -0.74505805969E-08  0.93827000000E+00  0.93827000000E+00 0. -1.
     999902    2    1    2    0    0  0.47975242927E-02 -0.22267619123E-01  0.45614827801E-02  0.10206991966E+01  0.10204347994E+01 0.  0.
     999903    2    3    3    0    0  0.11815042965E+00  0.37710049875E-01 -0.35849014109E-01  0.13048618267E+00  0.18971562101E-01 0.  0.
         14    1    1    2    0    0 -0.47975242927E-02  0.22267619123E-01 -0.45614827801E-02  0.23230803384E-01  0.00000000000E+00 0.  1.
     999901    1    3    3    0    0 -0.11335290536E+00 -0.59977668997E-01  0.40410496889E-01  0.89021301394E+00  0.88000000000E+00 0.  1.
        -11    1    4    4    0    0  0.16576999378E-01  0.10243127768E-01 -0.10947834258E-01  0.22356984832E-01  0.51100000000E-03 0.  1.
         11    1    4    4    0    0  0.10157343027E+00  0.27466922107E-01 -0.24901179852E-01  0.10812919784E+00  0.51100000000E-03 0. -1.
</event>
<event>
 8    1  0.1093753E+005  0.1043930E+01  0.7957747E-01            NaN
         13   -1    0    0    0    0  0.00000000000E+00  0.00000000000E+00  0.74505805969E-08  0.10566000000E+00  0.10566000000E+00 0.  1.
     999900   -1    0    0    0    0 -0.00000000000E+00 -0.00000000000E+00 -0.74505805969E-08  0.93827000000E+00  0.93827000000E+00 0. -1.
     999902    2    1    2    0    0 -0.10177096127E-02  0.11726540842E-01 -0.18920847968E-01  0.10216466883E+01  0.10214036468E+01 0.  0.
     999903    2    3    3    0    0 -0.11895732920E+00 -0.20989306381E-01  0.45029259931E-01  0.13087752805E+00  0.22580875682E-01 0.  0.
         14    1    1    2    0    0  0.10177096127E-02 -0.11726540842E-01  0.18920847968E-01  0.22283311711E-01  0.00000000000E+00 0.  1.
     999901    1    3    3    0    0  0.11793961959E+00  0.32715847224E-01 -0.63950107899E-01  0.89076916024E+00  0.88000000000E+00 0. -1.
        -11    1    4    4    0    0 -0.32210190941E-01 -0.12480452252E-01  0.21124878722E-01  0.40494193546E-01  0.51100000000E-03 0.  1.
         11    1    4    4    0    0 -0.86747138259E-01 -0.85088541291E-02  0.23904381209E-01  0.90383334507E-01  0.51100000000E-03 0. -1.
</event>
<event>
 8    1  0.1093753E+005  0.1043930E+01  0.7957747E-01            NaN
         13   -1    0    0    0    0  0.00000000000E+00  0.00000000000E+00  0.74505805969E-08  0.10566000000E+00  0.10566000000E+00 0.  1.
     999900   -1    0    0    0    0 -0.00000000000E+00 -0.00000000000E+00 -0.74505805969E-08  0.93827000000E+00  0.93827000000E+00 0.  1.
     999902    2    1    2    0    0  0.60103274539E-02  0.86341262550E-02  0.21479802810E-01  0.10200123475E+01  0.10197318937E+01 0.  0.
     999903    2    3    3    0    0 -0.11093865023E+00  0.58223325329E-01 -0.27582249184E-01  0.12953874487E+00  0.17948989487E-01 0.  0.
         14    1    1    2    0    0 -0.60103274539E-02 -0.86341262550E-02 -0.21479802810E-01  0.23917652498E-01  0.00000000000E+00 0. -1.
     999901    1    3    3    0    0  0.11694897769E+00 -0.49589199074E-01  0.49062051994E-01  0.89047360264E+00  0.88000000000E+00 0. -1.
        -11    1    4    4    0    0 -0.16725151981E-01  0.54289379384E-02  0.16077595806E-02  0.17664939507E-01  0.51100000000E-03 0. -1.
         11    1    4    4    0    0 -0.94213498251E-01  0.52794387391E-01 -0.29190008765E-01  0.11187380536E+00  0.51100000000E-03 0.  1.
</event>
<event>
 8    1  0.1093753E+005  0.1043930E+01  0.7957747E-01            NaN
         13   -1    0    0    0    0  0.00000000000E+00  0.00000000000E+00  0.74505805969E-08  0.10566000000E+00  0.10566000000E+00 0. -1.
     999900   -1    0    0    0    0 -0.00000000000E+00 -0.00000000000E+00 -0.74505805969E-08  0.93827000000E+00  0.93827000000E+00 0. -1.
     999902    2    1    2    0    0 -0.12162245552E-01  0.33034184176E-02  0.19583680835E-01  0.10206415190E+01  0.10203757921E+01 0.  0.
     999903    2    3    3    0    0 -0.10284916042E+00 -0.15694121905E-01 -0.76486279069E-01  0.13057721785E+00  0.19390814167E-01 0.  0.
         14    1    1    2    0    0  0.12162245552E-01 -0.33034184176E-02 -0.19583680835E-01  0.23288480954E-01  0.00000000000E+00 0.  1.
     999901    1    3    3    0    0  0.90686914869E-01  0.18997540323E-01  0.96069959904E-01  0.89006430120E+00  0.88000000000E+00 0. -1.
        -11    1    4    4    0    0 -0.50445537244E-01  0.10062467591E-02 -0.42058912250E-01  0.65688491998E-01  0.51100000000E-03 0. -1.
         11    1    4    4    0    0 -0.52403623177E-01 -0.16700368664E-01 -0.34427366818E-01  0.64888725851E-01  0.51100000000E-03 0.  1.
</event>
<event>
 8    1  0.1093753E+005  0.1043930E+01  0.7957747E-01            NaN
         13   -1    0    0    0    0  0.00000000000E+00  0.00000000000E+00  0.74505805969E-08  0.10566000000E+00  0.10566000000E+00 0. -1.
     999900   -1    0    0    0    0 -0.00000000000E+00 -0.00000000000E+00 -0.74505805969E-08  0.93827000000E+00  0.93827000000E+00 0. -1.
     999902    2    1    2    0    0  0.13284166254E-01  0.18092851753E-01 -0.97347225859E-02  0.10194639995E+01  0.10191703788E+01 0.  0.
     999903    2    3    3    0    0 -0.45275223194E-01  0.11428330581E+00  0.40510830990E-01  0.13086599071E+00  0.19345807625E-01 0.  0.
         14    1    1    2    0    0 -0.13284166254E-01 -0.18092851753E-01  0.97347225859E-02  0.24466000520E-01  0.00000000000E+00 0. -1.
     999901    1    3    3    0    0  0.58559389448E-01 -0.96190454062E-01 -0.50245553576E-01  0.88859800878E+00  0.88000000000E+00 0. -1.
        -11    1    4    4    0    0 -0.45154177947E-01  0.98276747584E-01  0.38104897263E-01  0.11467110891E+00  0.51100000000E-03 0.  1.
         11    1    4    4    0    0 -0.12104524694E-03  0.16006558230E-01  0.24059337273E-02  0.16194881797E-01  0.51100000000E-03 0. -1.
</event>
<event>
 8    1  0.1093753E+005  0.1043930E+01  0.7957747E-01            NaN
         13   -1    0    0    0    0  0.00000000000E+00  0.00000000000E+00  0.74505805969E-08  0.10566000000E+00  0.10566000000E+00 0.  1.
     999900   -1    0    0    0    0 -0.00000000000E+00 -0.00000000000E+00 -0.74505805969E-08  0.93827000000E+00  0.93827000000E+00 0.  1.
     999902    2    1    2    0    0 -0.11721005113E-01  0.18860450847E-01 -0.57313161557E-02  0.10209964754E+01  0.10207388776E+01 0.  0.
     999903    2    3    3    0    0 -0.11804113895E+00  0.48887957927E-01 -0.33419852669E-01  0.13365647453E+00  0.20577262111E-01 0.  0.
         14    1    1    2    0    0  0.11721005113E-01 -0.18860450847E-01  0.57313161557E-02  0.22933524628E-01  0.00000000000E+00 0.  1.
     999901    1    3    3    0    0  0.10632013384E+00 -0.30027507080E-01  0.27688536514E-01  0.88734000084E+00  0.88000000000E+00 0.  1.
        -11    1    4    4    0    0 -0.25835003463E-01  0.15122372692E-01 -0.31422382049E-04  0.29939867537E-01  0.51100000000E-03 0.  1.
         11    1    4    4    0    0 -0.92206135488E-01  0.33765585234E-01 -0.33388430287E-01  0.10371660699E+00  0.51100000000E-03 0. -1.
</event>
<event>
 8    1  0.1093753E+005  0.1043930E+01  0.7957747E-01            NaN
         13   -1    0    0    0    0  0.00000000000E+00  0.00000000000E+00  0.74505805969E-08  0.10566000000E+00  0.10566000000E+00 0.  1.
     999900   -1    0    0    0    0 -0.00000000000E+00 -0.00000000000E+00 -0.74505805969E-08  0.93827000000E+00  0.93827000000E+00 0.  1.
     999902    2    1    2    0    0  0.14305523302E-01  0.27665508979E-02 -0.19190954564E-01  0.10198344706E+01  0.10195497795E+01 0.  0.
     999903    2    3    3    0    0  0.10422310536E-01  0.94823406789E-01  0.84523744074E-01  0.12896619594E+00  0.19695515986E-01 0.  0.
         14    1    1    2    0    0 -0.14305523302E-01 -0.27665508979E-02  0.19190954564E-01  0.24095529417E-01  0.00000000000E+00 0.  1.
     999901    1    3    3    0    0  0.38832127660E-02 -0.92056855891E-01 -0.10371469864E+00  0.89086827465E+00  0.88000000000E+00 0.  1.
        -11    1    4    4    0    0  0.18103134529E-02  0.28050102767E-01  0.37387203666E-01  0.46777661539E-01  0.51100000000E-03 0. -1.
         11    1    4    4    0    0  0.86119970836E-02  0.66773304022E-01  0.47136540408E-01  0.82188534398E-01  0.51100000000E-03 0.  1.
</event>
<event>
 8    1  0.1093753E+005  0.1043930E+01  0.7957747E-01            NaN
         13   -1    0    0    0    0  0.00000000000E+00  0.00000000000E+00  0.74505805969E-08  0.10566000000E+00  0.10566000000E+00 0. -1.
     999900   -1    0    0    0    0 -0.00000000000E+00 -0.00000000000E+00 -0.74505805969E-08  0.93827000000E+00  0.93827000000E+00 0. -1.
     999902    2    1    2    0    0  0.21068124030E-01 -0.29164158918E-03 -0.91006297745E-02  0.10209784779E+01  0.10207204710E+01 0.  0.
     999903    2    3    3    0    0 -0.86179969633E-02 -0.91140367073E-01  0.90549516338E-01  0.13021200550E+00  0.19367888028E-01 0.  0.
         14    1    1    2    0    0 -0.21068124030E-01  0.29164158918E-03  0.91006297745E-02  0.22951522112E-01  0.00000000000E+00 0. -1.
     999901    1    3    3    0    0  0.29686120994E-01  0.90848725484E-01 -0.99650146113E-01  0.89076647238E+00  0.88000000000E+00 0. -1.
        -11    1    4    4    0    0 -0.14399864626E-01 -0.52963517579E-01  0.50678551274E-01  0.74706539044E-01  0.51100000000E-03 0.  1.
         11    1    4    4    0    0  0.57818676631E-02 -0.38176849493E-01  0.39870965064E-01  0.55505466461E-01  0.51100000000E-03 0. -1.
</event>
<event>
 8    1  0.1093753E+005  0.1043930E+01  0.7957747E-01            NaN
         13   -1    0    0    0    0  0.00000000000E+00  0.00000000000E+00  0.74505805969E-08  0.10566000000E+00  0.10566000000E+00 0.  1.
     999900   -1    0    0    0    0 -0.00000000000E+00 -0.00000000000E+00 -0.74505805969E-08  0.93827000000E+00  0.93827000000E+00 0. -1.
     999902    2    1    2    0    0 -0.11200388721E-02 -0.21557073647E-01 -0.83876187776E-02  0.10207715445E+01  0.10205088104E+01 0.  0.
     999903    2    3    3    0    0 -0.11271817694E+00  0.56902426299E-01 -0.41486060453E-02  0.13025034501E+00  0.31696496843E-01 0.  0.
         14    1    1    2    0    0  0.11200388721E-02  0.21557073647E-01  0.83876187776E-02  0.23158455477E-01  0.00000000000E+00 0.  1.
     999901    1    3    3    0    0  0.11159813807E+00 -0.78459499946E-01 -0.42390127324E-02  0.89052119951E+00  0.88000000000E+00 0. -1.
        -11    1    4    4    0    0 -0.21810106253E-01  0.12068973365E-01 -0.13682062596E-01  0.28439423530E-01  0.51100000000E-03 0.  1.
         11    1    4    4    0    0 -0.90908070687E-01  0.44833452934E-01  0.95334565511E-02  0.10181092148E+00  0.51100000000E-03 0. -1.
</event>
<event>
 8    1  0.1093753E+005  0.1043930E+01  0.7957747E-01            NaN
         13   -1    0    0    0    0  0.00000000000E+00  0.00000000000E+00  0.74505805969E-08  0.10566000000E+00  0.10566000000E+00 0.  1.
     999900   -1    0    0    0    0 -0.00000000000E+00 -0.00000000000E+00 -0.74505805969E-08  0.93827000000E+00  0.93827000000E+00 0.  1.
     999902    2    1    2    0    0  0.79876308347E-02 -0.16923184978E-01  0.13039182918E-01  0.10211217399E+01  0.10208669801E+01 0.  0.
     999903    2    3    3    0    0 -0.10758395012E+00  0.65969438444E-01 -0.20221116828E-01  0.12908237708E+00  0.18085722923E-01 0.  0.
         14    1    1    2    0    0 -0.79876308347E-02  0.16923184978E-01 -0.13039182918E-01  0.22808260068E-01  0.00000000000E+00 0. -1.
     999901    1    3    3    0    0  0.11557158096E+00 -0.82892623422E-01  0.33260299746E-01  0.89203936285E+00  0.88000000000E+00 0.  1.
        -11    1    4    4    0    0 -0.82204051371E-01  0.56597916461E-01 -0.10614817347E-01  0.10036815071E+00  0.51100000000E-03 0. -1.
         11    1    4    4    0    0 -0.25379898752E-01  0.93715219831E-02 -0.96062994812E-02  0.28714226363E-01  0.51100000000E-03 0.  1.
</event>
<event>
 8    1  0.1093753E+005  0.1043930E+01  0.7957747E-01            NaN
         13   -1    0    0    0    0  0.00000000000E+00  0.00000000000E+00  0.74505805969E-08  0.10566000000E+00  0.10566000000E+00 0. -1.
     999900   -1    0    0    0    0 -0.00000000000E+00 -0.00000000000E+00 -0.74505805969E-08  0.93827000000E+00  0.93827000000E+00 0. -1.
     999902    2    1    2    0    0  0.12035370485E-01  0.15821311104E-01  0.12317960532E-01  0.10205441885E+01  0.10202762099E+01 0.  0.
     999903    2    3    3    0    0 -0.40386078182E-01 -0.60530135805E-01 -0.10263194800E+00  0.12824881521E+00  0.24889941774E-01 0.  0.
         14    1    1    2    0    0 -0.12035370485E-01 -0.15821311104E-01 -0.12317960532E-01  0.23385811498E-01  0.00000000000E+00 0. -1.
     999901    1    3    3    0    0  0.52421448667E-01  0.76351446909E-01  0.11494990853E+00  0.89229537329E+00  0.88000000000E+00 0.  1.
        -11    1    4    4    0    0 -0.24577106204E-01 -0.34087093859E-01 -0.78758029303E-01  0.89269549219E-01  0.51100000000E-03 0. -1.
         11    1    4    4    0    0 -0.15808971978E-01 -0.26443041946E-01 -0.23873918696E-01  0.38979265992E-01  0.51100000000E-03 0.  1.
</event>
<event>
 8    1  0.1093753E+005  0.1043930E+01  0.7957747E-01            NaN
         13   -1    0    0    0    0  0.00000000000E+00  0.00000000000E+00  0.74505805969E-08  0.10566000000E+00  0.10566000000E+00 0.  1.
     999900   -1    0    0    0    0 -0.00000000000E+00 -0.00000000000E+00 -0.74505805969E-08  0.93827000000E+00  0.93827000000E+00 0. -1.
     999902    2    1    2    0    0  0.88173339283E-02  0.22291674411E-01 -0.96228836859E-03  0.10199385406E+01  0.10196563325E+01 0.  0.
     999903    2    3    3    0    0  0.11997318664E+00 -0.20411621543E-01  0.43489945811E-01  0.13080683145E+00  0.20220088020E-01 0.  0.
         14    1    1    2    0    0 -0.88173339283E-02 -0.22291674411E-01  0.96228836859E-03  0.23991459409E-01  0.00000000000E+00 0. -1.
     999901    1    3    3    0    0 -0.11115585272E+00  0.42703295954E-01 -0.44452234180E-01  0.88913170914E+00  0.88000000000E+00 0.  1.
        -11    1    4    4    0    0  0.11133063399E+00 -0.13295953118E-01  0.40436446951E-01  0.11919169349E+00  0.51100000000E-03 0.  1.
         11    1    4    4    0    0  0.86425526520E-02 -0.71156684252E-02  0.30534988601E-02  0.11615137957E-01  0.51100000000E-03 0. -1.
</event>
<event>
 8    1  0.1093753E+005  0.1043930E+01  0.7957747E-01            NaN
         13   -1    0    0    0    0  0.00000000000E+00  0.00000000000E+00  0.74505805969E-08  0.10566000000E+00  0.10566000000E+00 0. -1.
     999900   -1    0    0    0    0 -0.00000000000E+00 -0.00000000000E+00 -0.74505805969E-08  0.93827000000E+00  0.93827000000E+00 0. -1.
     999902    2    1    2    0    0  0.11251274672E-01  0.52703095912E-02  0.18005204054E-01  0.10220541065E+01  0.10218199655E+01 0.  0.
     999903    2    3    3    0    0 -0.27237856142E-01 -0.10066091964E+00  0.79618396826E-01  0.13272906800E+00  0.20084691391E-01 0.  0.
         14    1    1    2    0    0 -0.11251274672E-01 -0.52703095912E-02 -0.18005204054E-01  0.21875893535E-01  0.00000000000E+00 0.  1.
     999901    1    3    3    0    0  0.38489130814E-01  0.10593122923E+00 -0.61613192771E-01  0.88932503847E+00  0.88000000000E+00 0. -1.
        -11    1    4    4    0    0 -0.14004513085E-01 -0.70898658809E-01  0.64288702328E-01  0.96726648736E-01  0.51100000000E-03 0. -1.
         11    1    4    4    0    0 -0.13233343057E-01 -0.29762260834E-01  0.15329694498E-01  0.36002419263E-01  0.51100000000E-03 0.  1.
</event>
<event>
 8    1  0.1093753E+005  0.1043930E+01  0.7957747E-01            NaN
         13   -1    0    0    0    0  0.00000000000E+00  0.00000000000E+00  0.74505805969E-08  0.10566000000E+00  0.10566000000E+00 0.  1.
     999900   -1    0    0    0    0 -0.00000000000E+00 -0.00000000000E+00 -0.74505805969E-08  0.93827000000E+00  0.93827000000E+00 0. -1.
     999902    2    1    2    0    0 -0.13355205162E-01  0.16675419621E-02  0.19213567068E-01  0.10204714544E+01  0.10202017869E+01 0.  0.
     999903    2    3    3    0    0  0.11935658903E+00 -0.29928573237E-01 -0.31335956811E-01  0.12852639492E+00  0.19884093141E-01 0.  0.
         14    1    1    2    0    0  0.13355205162E-01 -0.16675419621E-02 -0.19213567068E-01  0.23458545577E-01  0.00000000000E+00 0. -1.
     999901    1    3    3    0    0 -0.13271179419E+00  0.31596115199E-01  0.50549523879E-01  0.89194505951E+00  0.88000000000E+00 0.  1.
        -11    1    4    4    0    0  0.43028832595E-01 -0.14500557261E-01 -0.24733539943E-02  0.45476644515E-01  0.51100000000E-03 0.  1.
         11    1    4    4    0    0  0.76327756436E-01 -0.15428015976E-01 -0.28862602817E-01  0.83049750402E-01  0.51100000000E-03 0. -1.
</event>
<event>
 8    1  0.1093753E+005  0.1043930E+01  0.7957747E-01            NaN
         13   -1    0    0    0    0  0.00000000000E+00  0.00000000000E+00  0.74505805969E-08  0.10566000000E+00  0.10566000000E+00 0. -1.
     999900   -1    0    0    0    0 -0.00000000000E+00 -0.00000000000E+00 -0.74505805969E-08  0.93827000000E+00  0.93827000000E+00 0.  1.
     999902    2    1    2    0    0  0.19911067786E-01  0.14359802835E-01 -0.25822655601E-02  0.10192455382E+01  0.10189465857E+01 0.  0.
     999903    2    3    3    0    0 -0.57311154714E-01  0.70133247438E-01  0.89182678879E-01  0.12936085255E+00  0.24029962731E-01 0.  0.
         14    1    1    2    0    0 -0.19911067786E-01 -0.14359802835E-01  0.25822655601E-02  0.24684461778E-01  0.00000000000E+00 0. -1.
     999901    1    3    3    0    0  0.77222222500E-01 -0.55773444603E-01 -0.91764944439E-01  0.88988468567E+00  0.88000000000E+00 0.  1.
        -11    1    4    4    0    0 -0.17141642021E-01  0.36965967248E-01  0.30564620515E-01  0.50938941626E-01  0.51100000000E-03 0.  1.
         11    1    4    4    0    0 -0.40169512692E-01  0.33167280191E-01  0.58618058364E-01  0.78421910921E-01  0.51100000000E-03 0. -1.
</event>
<event>
 8    1  0.1093753E+005  0.1043930E+01  0.7957747E-01            NaN
         13   -1    0    0    0    0  0.00000000000E+00  0.00000000000E+00  0.74505805969E-08  0.10566000000E+00  0.10566000000E+00 0.  1.
     999900   -1    0    0    0    0 -0.00000000000E+00 -0.00000000000E+00 -0.74505805969E-08  0.93827000000E+00  0.93827000000E+00 0. -1.
     999902    2    1    2    0    0 -0.22909329574E-01  0.60680493739E-02  0.42175618524E-03  0.10202269098E+01  0.10199515239E+01 0.  0.
     999903    2    3    3    0    0 -0.51933172587E-01 -0.90807869773E-02 -0.11879675823E+00  0.13158472939E+00  0.20551304908E-01 0.  0.
         14    1    1    2    0    0  0.22909329574E-01 -0.60680493739E-02 -0.42175618524E-03  0.23703090158E-01  0.00000000000E+00 0. -1.
     999901    1    3    3    0    0  0.29023843013E-01  0.15148836351E-01  0.11921851442E+00  0.88864218046E+00  0.88000000000E+00 0.  1.
        -11    1    4    4    0    0 -0.30231000581E-01 -0.75577402713E-02 -0.91579625197E-01  0.96737385257E-01  0.51100000000E-03 0.  1.
         11    1    4    4    0    0 -0.21702172006E-01 -0.15230467060E-02 -0.27217133038E-01  0.34847344129E-01  0.51100000000E-03 0. -1.
</event>
<event>
 8    1  0.1093753E+005  0.1043930E+01  0.7957747E-01            NaN
         13   -1    0    0    0    0  0.00000000000E+00  0.00000000000E+00  0.74505805969E-08  0.10566000000E+00  0.10566000000E+00 0.  1.
     999900   -1    0    0    0    0 -0.00000000000E+00 -0.00000000000E+00 -0.74505805969E-08  0.93827000000E+00  0.93827000000E+00 0.  1.
     999902    2    1    2    0    0  0.14178603607E-01 -0.17665641606E-01  0.79923146088E-02  0.10199094924E+01  0.10196265924E+01 0.  0.
     999903    2    3    3    0    0 -0.57847139552E-01  0.10348537858E+00  0.44193608786E-01  0.12795892701E+00  0.19102272346E-01 0.  0.
         14    1    1    2    0    0 -0.14178603607E-01  0.17665641606E-01 -0.79923146088E-02  0.24020507621E-01  0.00000000000E+00 0. -1.
     999901    1    3    3    0    0  0.72025743158E-01 -0.12115102019E+00 -0.36201294178E-01  0.89195056537E+00  0.88000000000E+00 0. -1.
        -11    1    4    4    0    0 -0.18892171841E-01  0.38388098647E-01  0.66112983833E-02  0.43295850401E-01  0.51100000000E-03 0.  1.
         11    1    4    4    0    0 -0.38954967711E-01  0.65097279932E-01  0.37582310403E-01  0.84663076605E-01  0.51100000000E-03 0. -1.
</event>
<event>
 8    1  0.1093753E+005  0.1043930E+01  0.7957747E-01            NaN
         13   -1    0    0    0    0  0.00000000000E+00  0.00000000000E+00  0.74505805969E-08  0.10566000000E+00  0.10566000000E+00 0. -1.
     999900   -1    0    0    0    0 -0.00000000000E+00 -0.00000000000E+00 -0.74505805969E-08  0.93827000000E+00  0.93827000000E+00 0. -1.
     999902    2    1    2    0    0  0.86595935890E-03 -0.78458894634E-02  0.26845742729E-01  0.10159478312E+01  0.10155624028E+01 0.  0.
     999903    2    3    3    0    0  0.95990979359E-01  0.67991194929E-01 -0.38621976339E-01  0.12516948896E+00  0.18403075929E-01 0.  0.
         14    1    1    2    0    0 -0.86595935890E-03  0.78458894634E-02 -0.26845742729E-01  0.27982168782E-01  0.00000000000E+00 0.  1.
     999901    1    3    3    0    0 -0.95125020000E-01 -0.75837084392E-01  0.65467719068E-01  0.89077834226E+00  0.88000000000E+00 0.  1.
        -11    1    4    4    0    0  0.59942170043E-01  0.33029214728E-01 -0.17193271030E-01  0.70568140579E-01  0.51100000000E-03 0. -1.
         11    1    4    4    0    0  0.36048809316E-01  0.34961980201E-01 -0.21428705309E-01  0.54601348380E-01  0.51100000000E-03 0.  1.
</event>
<event>
 8    1  0.1093753E+005  0.1043930E+01  0.7957747E-01            NaN
         13   -1    0    0    0    0  0.00000000000E+00  0.00000000000E+00  0.74505805969E-08  0.10566000000E+00  0.10566000000E+00 0.  1.
     999900   -1    0    0    0    0 -0.00000000000E+00 -0.00000000000E+00 -0.74505805969E-08  0.93827000000E+00  0.93827000000E+00 0.  1.
     999902    2    1    2    0    0  0.15211544637E-01 -0.76919551893E-02 -0.20334778388E-01  0.10173958620E+01  0.10170497921E+01 0.  0.
     999903    2    3    3    0    0  0.16673528043E-01  0.44112065616E-01 -0.11981245427E+00  0.13027602687E+00  0.19822666550E-01 0.  0.
         14    1    1    2    0    0 -0.15211544637E-01  0.76919551893E-02  0.20334778388E-01  0.26534137954E-01  0.00000000000E+00 0.  1.
     999901    1    3    3    0    0 -0.14619834066E-02 -0.51804020805E-01  0.99477675878E-01  0.88711983518E+00  0.88000000000E+00 0. -1.
        -11    1    4    4    0    0  0.70359181043E-02  0.36484978547E-01 -0.73530243649E-01  0.82386987172E-01  0.51100000000E-03 0. -1.
         11    1    4    4    0    0  0.96376099392E-02  0.76270870686E-02 -0.46282210617E-01  0.47889039697E-01  0.51100000000E-03 0.  1.
</event>
<event>
 8    1  0.1093753E+005  0.1043930E+01  0.7957747E-01            NaN
         13   -1    0    0    0    0  0.00000000000E+00  0.00000000000E+00  0.74505805969E-08  0.10566000000E+00  0.10566000000E+00 0. -1.
     999900   -1    0    0    0    0 -0.00000000000E+00 -0.00000000000E+00 -0.74505805969E-08  0.93827000000E+00  0.93827000000E+00 0. -1.
     999902    2    1    2    0    0 -0.17207669146E-01 -0.68370841290E-02 -0.15011280575E-01  0.10200933026E+01  0.10198147665E+01 0.  0.
     999903    2    3    3    0    0 -0.75474216620E-01  0.34749349021E-01  0.97900919798E-01  0.12999578721E+00  0.20259317915E-01 0.  0.
         14    1    1    2    0    0  0.17207669146E-01  0.68370841290E-02  0.15011280575E-01  0.23836697366E-01  0.00000000000E+00 0. -1.
     999901    1    3    3    0    0  0.58266547474E-01 -0.41586433150E-01 -0.11291220037E+00  0.89009751543E+00  0.88000000000E+00 0. -1.
        -11    1    4    4    0    0 -0.38757944937E-01  0.70149375390E-02  0.41788948354E-01  0.57427911070E-01  0.51100000000E-03 0.  1.
         11    1    4    4    0    0 -0.36716271683E-01  0.27734411482E-01  0.56111971444E-01  0.72567876136E-01  0.51100000000E-03 0. -1.
</event>
<event>
 8    1  0.1093753E+005  0.1043930E+01  0.7957747E-01            NaN
         13   -1    0    0    0    0  0.00000000000E+00  0.00000000000E+00  0.74505805969E-08  0.10566000000E+00  0.10566000000E+00 0. -1.
     999900   -1    0    0    0    0 -0.00000000000E+00 -0.00000000000E+00 -0.74505805969E-08  0.93827000000E+00  0.93827000000E+00 0.  1.
     999902    2    1    2    0    0  0.97427088716E-02  0.14496611577E-01  0.16192146329E-01  0.10201128271E+01  0.10198347524E+01 0.  0.
     999903    2    3    3    0    0  0.59984957700E-01  0.11017162307E+00 -0.35987065698E-01  0.13196832219E+00  0.19610902158E-01 0.  0.
         14    1    1    2    0    0 -0.97427088716E-02 -0.14496611577E-01 -0.16192146329E-01  0.23817172924E-01  0.00000000000E+00 0.  1.
     999901    1    3    3    0    0 -0.50242248829E-01 -0.95675011495E-01  0.52179212027E-01  0.88814450489E+00  0.88000000000E+00 0. -1.
        -11    1    4    4    0    0  0.41565077178E-01  0.90802877747E-01 -0.24226057234E-01  0.10276176924E+00  0.51100000000E-03 0.  1.
         11    1    4    4    0    0  0.18419880522E-01  0.19368745325E-01 -0.11761008464E-01  0.29206552946E-01  0.51100000000E-03 0. -1.
</event>
<event>
 8    1  0.1093753E+005  0.1043930E+01  0.7957747E-01            NaN
         13   -1    0    0    0    0  0.00000000000E+00  0.00000000000E+00  0.74505805969E-08  0.10566000000E+00  0.10566000000E+00 0. -1.
     999900   -1    0    0    0    0 -0.00000000000E+00 -0.00000000000E+00 -0.74505805969E-08  0.93827000000E+00  0.93827000000E+00 0. -1.
     999902    2    1    2    0    0 -0.14556458428E-01  0.58124284671E-02  0.17972426269E-01  0.10200829265E+01  0.10198041450E+01 0.  0.
     999903    2    3    3    0    0 -0.61061841544E-01  0.16473875968E-01 -0.11110863856E+00  0.12938750249E+00  0.19901235032E-01 0.  0.
         14    1    1    2    0    0  0.14556458428E-01 -0.58124284671E-02 -0.17972426269E-01  0.23847073460E-01  0.00000000000E+00 0.  1.
     999901    1    3    3    0    0  0.46505383116E-01 -0.10661447501E-01  0.12908106483E+00  0.89069542405E+00  0.88000000000E+00 0.  1.
        -11    1    4    4    0    0 -0.25061844959E-01  0.16598595299E-01 -0.45186311751E-01  0.54274057609E-01  0.51100000000E-03 0. -1.
         11    1    4    4    0    0 -0.35999996585E-01 -0.12471933111E-03 -0.65922326811E-01  0.75113444883E-01  0.51100000000E-03 0.  1.
</event>
<event>
 8    1  0.1093753E+005  0.1043930E+01  0.7957747E-01            NaN
         13   -1    0    0    0    0  0.00000000000E+00  0.00000000000E+00  0.74505805969E-08  0.10566000000E+00  0.10566000000E+00 0.  1.
     999900   -1    0    0    0    0 -0.00000000000E+00 -0.00000000000E+00 -0.74505805969E-08  0.93827000000E+00  0.93827000000E+00 0. -1.
     999902    2    1    2    0    0  0.12751186022E-01  0.43705733985E-02 -0.21646115047E-01  0.10184300205E+01  0.10181107296E+01 0.  0.
     999903    2    3    3    0    0 -0.82646651461E-01  0.68834050655E-01 -0.69629717479E-01  0.12963380462E+00  0.19698482606E-01 0.  0.
         14    1    1    2    0    0 -0.12751186022E-01 -0.43705733985E-02  0.21646115047E-01  0.25499979479E-01  0.00000000000E+00 0.  1.
     999901    1    3    3    0    0  0.95397837482E-01 -0.64463477257E-01  0.47983602433E-01  0.88879621590E+00  0.88000000000E+00 0. -1.
        -11    1    4    4    0    0 -0.51076299720E-01  0.30553255061E-01 -0.34011424424E-01  0.68551644037E-01  0.51100000000E-03 0. -1.
         11    1    4    4    0    0 -0.31570351741E-01  0.38280795594E-01 -0.35618293055E-01  0.61082160584E-01  0.51100000000E-03 0.  1.
</event>
<event>
 8    1  0.1093753E+005  0.1043930E+01  0.7957747E-01            NaN
         13   -1    0    0    0    0  0.00000000000E+00  0.00000000000E+00  0.74505805969E-08  0.10566000000E+00  0.10566000000E+00 0. -1.
     999900   -1    0    0    0    0 -0.00000000000E+00 -0.00000000000E+00 -0.74505805969E-08  0.93827000000E+00  0.93827000000E+00 0.  1.
     999902    2    1    2    0    0  0.79910923010E-02 -0.53297965088E-02 -0.20913305961E-01  0.10209162942E+01  0.10206568714E+01 0.  0.
     999903    2    3    3    0    0  0.10229789409E+00 -0.69118046382E-01 -0.45922213827E-01  0.13322932285E+00  0.19975967415E-01 0.  0.
         14    1    1    2    0    0 -0.79910923010E-02  0.53297965088E-02  0.20913305961E-01  0.23013705768E-01  0.00000000000E+00 0. -1.
     999901    1    3    3    0    0 -0.94306801787E-01  0.63788249873E-01  0.25008907867E-01  0.88768697138E+00  0.88000000000E+00 0. -1.
        -11    1    4    4    0    0  0.33982156139E-01 -0.34133920145E-01 -0.20814193346E-01  0.52472880671E-01  0.51100000000E-03 0. -1.
         11    1    4    4    0    0  0.68315737949E-01 -0.34984126237E-01 -0.25108020482E-01  0.80756442180E-01  0.51100000000E-03 0.  1.
</event>
<event>
 8    1  0.1093753E+005  0.1043930E+01  0.7957747E-01            NaN
         13   -1    0    0    0    0  0.00000000000E+00  0.00000000000E+00  0.74505805969E-08  0.10566000000E+00  0.10566000000E+00 0.  1.
     999900   -1    0    0    0    0 -0.00000000000E+00 -0.00000000000E+00 -0.74505805969E-08  0.93827000000E+00  0.93827000000E+00 0.  1.
     999902    2    1    2    0    0 -0.20266888336E-01  0.63115901048E-02 -0.97853510024E-02  0.10205561679E+01  0.10202884670E+01 0.  0.
     999903    2    3    3    0    0 -0.12948324229E+00 -0.23753512382E-01  0.20592955491E-02  0.13321608766E+00  0.20301377539E-01 0.  0.
         14    1    1    2    0    0  0.20266888336E-01 -0.63115901048E-02  0.97853510024E-02  0.23373832093E-01  0.00000000000E+00 0.  1.
     999901    1    3    3    0    0  0.10921635395E+00  0.30065102486E-01 -0.11844646552E-01  0.88734008025E+00  0.88000000000E+00 0. -1.
        -11    1    4    4    0    0 -0.65009135913E-01 -0.64202440971E-02  0.95892841229E-02  0.66027439579E-01  0.51100000000E-03 0. -1.
         11    1    4    4    0    0 -0.64474106375E-01 -0.17333268284E-01 -0.75299885738E-02  0.67188648082E-01  0.51100000000E-03 0.  1.
</event>
<event>
 8    1  0.1093753E+005  0.1043930E+01  0.7957747E-01            NaN
         13   -1    0    0    0    0  0.00000000000E+00  0.00000000000E+00  0.74505805969E-08  0.10566000000E+00  0.10566000000E+00 0.  1.
     999900   -1    0    0    0    0 -0.00000000000E+00 -0.00000000000E+00 -0.74505805969E-08  0.93827000000E+00  0.93827000000E+00 0.  1.
     999902    2    1    2    0    0  0.24412858485E-01  0.16754111469E-02 -0.61798904655E-02  0.10186914242E+01  0.10183787272E+01 0.  0.
     999903    2    3    3    0    0  0.93786590887E-01 -0.12664713011E-01  0.88090875408E-01  0.13082581996E+00  0.19976817857E-01 0.  0.
         14    1    1    2    0    0 -0.24412858485E-01 -0.16754111469E-02  0.61798904655E-02  0.25238575794E-01  0.00000000000E+00 0. -1.
     999901    1    3    3    0    0 -0.69373732402E-01  0.14340124158E-01 -0.94270765873E-01  0.88786560425E+00  0.88000000000E+00 0.  1.
        -11    1    4    4    0    0  0.54948973735E-02 -0.39528331158E-02  0.12691316261E-01  0.14392686206E-01  0.51100000000E-03 0.  1.
         11    1    4    4    0    0  0.88291693514E-01 -0.87118798956E-02  0.75399559147E-01  0.11643313375E+00  0.51100000000E-03 0. -1.
</event>
<event>
 8    1  0.1093753E+005  0.1043930E+01  0.7957747E-01            NaN
         13   -1    0    0    0    0  0.00000000000E+00  0.00000000000E+00  0.74505805969E-08  0.10566000000E+00  0.10566000000E+00 0. -1.
     999900   -1    0    0    0    0 -0.00000000000E+00 -0.00000000000E+00 -0.74505805969E-08  0.93827000000E+00  0.93827000000E+00 0.  1.
     999902    2    1    2    0    0 -0.23681757512E-01 -0.63258533428E-02 -0.26350045288E-02  0.10192766978E+01  0.10189785088E+01 0.  0.
     999903    2    3    3    0    0 -0.14135394147E-01  0.37544149724E-01 -0.12213241324E+00  0.13006618230E+00  0.19786684105E-01 0.  0.
         14    1    1    2    0    0  0.23681757512E-01  0.63258533428E-02  0.26350045288E-02  0.24653302177E-01  0.00000000000E+00 0.  1.
     999901    1    3    3    0    0 -0.95463633652E-02 -0.43870003067E-01  0.11949740871E+00  0.88921051552E+00  0.88000000000E+00 0. -1.
        -11    1    4    4    0    0  0.38153380956E-03  0.15423278060E-01 -0.69030032330E-01  0.70734924603E-01  0.51100000000E-03 0. -1.
         11    1    4    4    0    0 -0.14516927956E-01  0.22120871665E-01 -0.53102380914E-01  0.59331257700E-01  0.51100000000E-03 0.  1.
</event>
<event>
 8    1  0.1093753E+005  0.1043930E+01  0.7957747E-01            NaN
         13   -1    0    0    0    0  0.00000000000E+00  0.00000000000E+00  0.74505805969E-08  0.10566000000E+00  0.10566000000E+00 0.  1.
     999900   -1    0    0    0    0 -0.00000000000E+00 -0.00000000000E+00 -0.74505805969E-08  0.93827000000E+00  0.93827000000E+00 0. -1.
     999902    2    1    2    0    0 -0.11229620994E-01 -0.23740787683E-02  0.20528711014E-01  0.10204104632E+01  0.10201393751E+01 0.  0.
     999903    2    3    3    0    0 -0.70852835500E-01 -0.10905274619E+00 -0.47204304176E-02  0.13160633122E+00  0.19629523815E-01 0.  0.
         14    1    1    2    0    0  0.11229620994E-01  0.23740787683E-02 -0.20528711014E-01  0.23519536848E-01  0.00000000000E+00 0. -1.
     999901    1    3    3    0    0  0.59623214505E-01  0.10667866742E+00  0.25249141431E-01  0.88880413193E+00  0.88000000000E+00 0. -1.
        -11    1    4    4    0    0 -0.19461799742E-01 -0.16102833957E-01  0.44228061961E-03  0.25268946234E-01  0.51100000000E-03 0. -1.
         11    1    4    4    0    0 -0.51391035757E-01 -0.92949912231E-01 -0.51627110372E-02  0.10633738499E+00  0.51100000000E-03 0.  1.
</event>
<event>
 8    1  0.1093753E+005  0.1043930E+01  0.7957747E-01            NaN
         13   -1    0    0    0    0  0.00000000000E+00  0.00000000000E+00  0.74505805969E-08  0.10566000000E+00  0.10566000000E+00 0. -1.
     999900   -1    0    0    0    0 -0.00000000000E+00 -0.00000000000E+00 -0.74505805969E-08  0.93827000000E+00  0.93827000000E+00 0.  1.
     999902    2    1    2    0    0 -0.17018077599E-01  0.79663996936E-02  0.15041703566E-01  0.10198606972E+01  0.10195766329E+01 0.  0.
     999903    2    3    3    0    0  0.56131878310E-01  0.92830093950E-01  0.70671239303E-01  0.13101458688E+00  0.20054520824E-01 0.  0.
         14    1    1    2    0    0  0.17018077599E-01 -0.79663996936E-02 -0.15041703566E-01  0.24069302762E-01  0.00000000000E+00 0.  1.
     999901    1    3    3    0    0 -0.73149955909E-01 -0.84863694256E-01 -0.55629535736E-01  0.88884611036E+00  0.88000000000E+00 0.  1.
        -11    1    4    4    0    0  0.13595922098E-01  0.35452142038E-01  0.32752075882E-01  0.50146416306E-01  0.51100000000E-03 0.  1.
         11    1    4    4    0    0  0.42535956212E-01  0.57377951912E-01  0.37919163421E-01  0.80868170574E-01  0.51100000000E-03 0. -1.
</event>
<event>
 8    1  0.1093753E+005  0.1043930E+01  0.7957747E-01            NaN
         13   -1    0    0    0    0  0.00000000000E+00  0.00000000000E+00  0.74505805969E-08  0.10566000000E+00  0.10566000000E+00 0.  1.
     999900   -1    0    0    0    0 -0.00000000000E+00 -0.00000000000E+00 -0.74505805969E-08  0.93827000000E+00  0.93827000000E+00 0. -1.
     999902    2    1    2    0    0  0.15990769231E-01 -0.28088076628E-02  0.16846788872E-01  0.10205332396E+01  0.10202650071E+01 0.  0.
     999903    2    3    3    0    0  0.40056288708E-01  0.95964845130E-01  0.79585875599E-01  0.13246140879E+00  0.19958844074E-01 0.  0.
         14    1    1    2    0    0 -0.15990769231E-01  0.28088076628E-02 -0.16846788872E-01  0.23396760382E-01  0.00000000000E+00 0. -1.
     999901    1    3    3    0    0 -0.24065519477E-01 -0.98773652793E-01 -0.62739086726E-01  0.88807183083E+00  0.88000000000E+00 0. -1.
        -11    1    4    4    0    0  0.14943347381E-01  0.36157240445E-01  0.42383403078E-01  0.57682437925E-01  0.51100000000E-03 0.  1.
         11    1    4    4    0    0  0.25112941327E-01  0.59807604685E-01  0.37202472521E-01  0.74778970861E-01  0.51100000000E-03 0. -1.
</event>
<event>
 8    1  0.1093753E+005  0.1043930E+01  0.7957747E-01            NaN
         13   -1    0    0    0    0  0.00000000000E+00  0.00000000000E+00  0.74505805969E-08  0.10566000000E+00  0.10566000000E+00 0. -1.
     999900   -1    0    0    0    0 -0.00000000000E+00 -0.00000000000E+00 -0.74505805969E-08  0.93827000000E+00  0.93827000000E+00 0.  1.
     999902    2    1    2    0    0  0.27284135187E-02  0.64455263109E-02 -0.22916727600E-01  0.10199682502E+01  0.10196867489E+01 0.  0.
     999903    2    3    3    0    0 -0.39538156106E-01  0.10661827949E+00 -0.65062043730E-01  0.13227614645E+00  0.18253385301E-01 0.  0.
         14    1    1    2    0    0 -0.27284135187E-02 -0.64455263109E-02  0.22916727600E-01  0.23961749804E-01  0.00000000000E+00 0. -1.
     999901    1    3    3    0    0  0.42266569624E-01 -0.10017275318E+00  0.42145316130E-01  0.88769210375E+00  0.88000000000E+00 0. -1.
        -11    1    4    4    0    0 -0.56314461221E-02  0.39805636833E-01 -0.21104656602E-01  0.45407813870E-01  0.51100000000E-03 0.  1.
         11    1    4    4    0    0 -0.33906709984E-01  0.66812642656E-01 -0.43957387128E-01  0.86868332577E-01  0.51100000000E-03 0. -1.
</event>
<event>
 8    1  0.1093753E+005  0.1043930E+01  0.7957747E-01            NaN
         13   -1    0    0    0    0  0.00000000000E+00  0.00000000000E+00  0.74505805969E-08  0.10566000000E+00  0.10566000000E+00 0. -1.
     999900   -1    0    0    0    0 -0.00000000000E+00 -0.00000000000E+00 -0.74505805969E-08  0.93827000000E+00  0.93827000000E+00 0.  1.
     999902    2    1    2    0    0 -0.10753709039E-01 -0.18266903192E-01 -0.10696210654E-01  0.10201869814E+01  0.10199106559E+01 0.  0.
     999903    2    3    3    0    0 -0.50122441504E-01 -0.11790329461E+00  0.29088745357E-01  0.13279746696E+00  0.19379527974E-01 0.  0.
         14    1    1    2    0    0  0.10753709039E-01  0.18266903192E-01  0.10696210654E-01  0.23743018609E-01  0.00000000000E+00 0. -1.
     999901    1    3    3    0    0  0.39368732465E-01  0.99636391413E-01 -0.39784956012E-01  0.88738951443E+00  0.88000000000E+00 0.  1.
        -11    1    4    4    0    0 -0.38120402515E-01 -0.65303973669E-01  0.17240707528E-01  0.77558218016E-01  0.51100000000E-03 0. -1.
         11    1    4    4    0    0 -0.12002038989E-01 -0.52599320937E-01  0.11848037829E-01  0.55239248947E-01  0.51100000000E-03 0.  1.
</event>
<event>
 8    1  0.1093753E+005  0.1043930E+01  0.7957747E-01            NaN
         13   -1    0    0    0    0  0.00000000000E+00  0.00000000000E+00  0.74505805969E-08  0.10566000000E+00  0.10566000000E+00 0. -1.
     999900   -1    0    0    0    0 -0.00000000000E+00 -0.00000000000E+00 -0.74505805969E-08  0.93827000000E+00  0.93827000000E+00 0. -1.
     999902    2    1    2    0    0 -0.16849221638E-01 -0.71017778908E-02  0.26202341366E-01  0.10119785648E+01  0.10114740340E+01 0.  0.
     999903    2    3    3    0    0  0.44068537035E-01  0.88361771163E-01 -0.65358804268E-01  0.12001012033E+00  0.19514536297E-01 0.  0.
         14    1    1    2    0    0  0.16849221638E-01  0.71017778908E-02 -0.26202341366E-01  0.31951435211E-01  0.00000000000E+00 0.  1.
     999901    1    3    3    0    0 -0.60917758672E-01 -0.95463549054E-01  0.91561145634E-01  0.89196844446E+00  0.88000000000E+00 0. -1.
        -11    1    4    4    0    0  0.28439992904E-01  0.66535094128E-01 -0.38220245601E-01  0.81833979750E-01  0.51100000000E-03 0. -1.
         11    1    4    4    0    0  0.15628544131E-01  0.21826677035E-01 -0.27138558668E-01  0.38176140580E-01  0.51100000000E-03 0.  1.
</event>
<event>
 8    1  0.1389490E+005  0.1043930E+01  0.7957747E-01            NaN
         13   -1    0    0    0    0  0.00000000000E+00  0.00000000000E+00  0.74505805969E-08  0.10566000000E+00  0.10566000000E+00 0.  1.
     999900   -1    0    0    0    0 -0.00000000000E+00 -0.00000000000E+00 -0.74505805969E-08  0.93827000000E+00  0.93827000000E+00 0.  1.
     999902    2    1    2    0    0 -0.71896591493E-03  0.11751872208E-03 -0.23309163196E-01  0.10206094552E+01  0.10203429875E+01 0.  0.
     999903    2    3    3    0    0  0.53815440610E-02  0.11251471069E+00 -0.66847696138E-01  0.13237190313E+00  0.19109817429E-01 0.  0.
         14    1    1    2    0    0  0.71896591493E-03 -0.11751872208E-03  0.23309163196E-01  0.23320544838E-01  0.00000000000E+00 0.  1.
     999901    1    3    3    0    0 -0.61005099760E-02 -0.11239719197E+00  0.43538532942E-01  0.88823755203E+00  0.88000000000E+00 0. -1.
        -11    1    4    4    0    0  0.96396409216E-02  0.52560628144E-01 -0.24152327041E-01  0.58644167063E-01  0.51100000000E-03 0. -1.
         11    1    4    4    0    0 -0.42580968606E-02  0.59954082545E-01 -0.42695369098E-01  0.73727736070E-01  0.51100000000E-03 0.  1.
</event>
<event>
 8    1  0.1093753E+005  0.1043930E+01  0.7957747E-01            NaN
         13   -1    0    0    0    0  0.00000000000E+00  0.00000000000E+00  0.74505805969E-08  0.10566000000E+00  0.10566000000E+00 0. -1.
     999900   -1    0    0    0    0 -0.00000000000E+00 -0.00000000000E+00 -0.74505805969E-08  0.93827000000E+00  0.93827000000E+00 0.  1.
     999902    2    1    2    0    0 -0.62878666509E-02 -0.50911025918E-02  0.22031576202E-01  0.10204598713E+01  0.10201899342E+01 0.  0.
     999903    2    3    3    0    0 -0.69241623009E-01  0.63266318990E-01  0.91601847017E-01  0.13283611364E+00  0.21389372018E-01 0.  0.
         14    1    1    2    0    0  0.62878666509E-02  0.50911025918E-02 -0.22031576202E-01  0.23470128729E-01  0.00000000000E+00 0.  1.
     999901    1    3    3    0    0  0.62953756358E-01 -0.68357421581E-01 -0.69570270815E-01  0.88762375763E+00  0.88000000000E+00 0.  1.
        -11    1    4    4    0    0 -0.33491881690E-01  0.33212924863E-01  0.31508187449E-01  0.56725933350E-01  0.51100000000E-03 0. -1.
         11    1    4    4    0    0 -0.35749741318E-01  0.30053394126E-01  0.60093659568E-01  0.76110180292E-01  0.51100000000E-03 0.  1.
</event>
