<event>
 8    1  0.1166736E+005  0.1043930E+01  0.7957747E-01            NaN
         13   -1    0    0    0    0  0.00000000000E+00  0.00000000000E+00  0.74505805969E-08  0.10566000000E+00  0.10566000000E+00 0.  1.
     999900   -1    0    0    0    0 -0.00000000000E+00 -0.00000000000E+00 -0.74505805969E-08  0.93827000000E+00  0.93827000000E+00 0. -1.
     999902    2    1    2    0    0  0.22550572897E-01  0.66607455793E-02  0.17129409657E-02  0.10203539945E+01  0.10200815879E+01 0.  0.
     999903    2    3    3    0    0  0.88960049377E-01  0.43978026374E-01 -0.85813210747E-01  0.13273717104E+00  0.20181482817E-01 0.  0.
         14    1    1    2    0    0 -0.22550572897E-01 -0.66607455793E-02 -0.17129409657E-02  0.23576005523E-01  0.00000000000E+00 0.  1.
     999901    1    3    3    0    0 -0.66409476480E-01 -0.37317280794E-01  0.87526151712E-01  0.88761682344E+00  0.88000000000E+00 0.  1.
        -11    1    4    4    0    0  0.20731237440E-01  0.19578604967E-01 -0.19846775718E-01  0.34745670315E-01  0.51100000000E-03 0. -1.
         11    1    4    4    0    0  0.68228811936E-01  0.24399421407E-01 -0.65966435029E-01  0.97991500727E-01  0.51100000000E-03 0.  1.
</event>
<event>
 8    1  0.1166736E+005  0.1043930E+01  0.7957747E-01            NaN
         13   -1    0    0    0    0  0.00000000000E+00  0.00000000000E+00  0.74505805969E-08  0.10566000000E+00  0.10566000000E+00 0. -1.
     999900   -1    0    0    0    0 -0.00000000000E+00 -0.00000000000E+00 -0.74505805969E-08  0.93827000000E+00  0.93827000000E+00 0.  1.
     999902    2    1    2    0    0 -0.19344793948E-01  0.11835750855E-01  0.19146068998E-02  0.10211710068E+01  0.10209173587E+01 0.  0.
     999903    2    3    3    0    0 -0.10988902229E-01  0.68860171911E-01 -0.11045417435E+00  0.13215562533E+00  0.20062537877E-01 0.  0.
         14    1    1    2    0    0  0.19344793948E-01 -0.11835750855E-01 -0.19146068998E-02  0.22758993185E-01  0.00000000000E+00 0.  1.
     999901    1    3    3    0    0 -0.83558917188E-02 -0.57024421056E-01  0.11236878125E+00  0.88901538149E+00  0.88000000000E+00 0. -1.
        -11    1    4    4    0    0  0.23600157249E-02  0.34468602569E-01 -0.64991114142E-01  0.73605436454E-01  0.51100000000E-03 0.  1.
         11    1    4    4    0    0 -0.13348917954E-01  0.34391569342E-01 -0.45463060209E-01  0.58550188872E-01  0.51100000000E-03 0. -1.
</event>
<event>
 8    1  0.1166736E+005  0.1043930E+01  0.7957747E-01            NaN
         13   -1    0    0    0    0  0.00000000000E+00  0.00000000000E+00  0.74505805969E-08  0.10566000000E+00  0.10566000000E+00 0. -1.
     999900   -1    0    0    0    0 -0.00000000000E+00 -0.00000000000E+00 -0.74505805969E-08  0.93827000000E+00  0.93827000000E+00 0.  1.
     999902    2    1    2    0    0 -0.10851579993E-01  0.14482340301E-01 -0.14417594752E-01  0.10207921088E+01  0.10205298464E+01 0.  0.
     999903    2    3    3    0    0  0.45707215701E-01  0.65215176654E-01  0.10071527757E+00  0.13004618752E+00  0.20646426303E-01 0.  0.
         14    1    1    2    0    0  0.10851579993E-01 -0.14482340301E-01  0.14417594752E-01  0.23137891160E-01  0.00000000000E+00 0. -1.
     999901    1    3    3    0    0 -0.56558795693E-01 -0.50732836353E-01 -0.11513287233E+00  0.89074592132E+00  0.88000000000E+00 0.  1.
        -11    1    4    4    0    0  0.44059586294E-01  0.48743243994E-01  0.80755539091E-01  0.10410988999E+00  0.51100000000E-03 0.  1.
         11    1    4    4    0    0  0.16476294070E-02  0.16471932660E-01  0.19959738483E-01  0.25936297529E-01  0.51100000000E-03 0. -1.
</event>
<event>
 8    1  0.1166736E+005  0.1043930E+01  0.7957747E-01            NaN
         13   -1    0    0    0    0  0.00000000000E+00  0.00000000000E+00  0.74505805969E-08  0.10566000000E+00  0.10566000000E+00 0.  1.
     999900   -1    0    0    0    0 -0.00000000000E+00 -0.00000000000E+00 -0.74505805969E-08  0.93827000000E+00  0.93827000000E+00 0. -1.
     999902    2    1    2    0    0 -0.10774378418E-01 -0.19276787991E-01  0.34727641484E-02  0.10215750928E+01  0.10213304697E+01 0.  0.
     999903    2    3    3    0    0  0.45657876099E-01  0.60126834807E-01 -0.10360287710E+00  0.12974846860E+00  0.20030752521E-01 0.  0.
         14    1    1    2    0    0  0.10774378418E-01  0.19276787991E-01 -0.34727641484E-02  0.22354907210E-01  0.00000000000E+00 0. -1.
     999901    1    3    3    0    0 -0.56432254517E-01 -0.79403622798E-01  0.10707564125E+00  0.89182662419E+00  0.88000000000E+00 0.  1.
        -11    1    4    4    0    0  0.20361344810E-01  0.39785468225E-01 -0.69772654608E-01  0.82861042091E-01  0.51100000000E-03 0.  1.
         11    1    4    4    0    0  0.25296531289E-01  0.20341366582E-01 -0.33830222495E-01  0.46887426510E-01  0.51100000000E-03 0. -1.
</event>
<event>
 8    1  0.1166736E+005  0.1043930E+01  0.7957747E-01            NaN
         13   -1    0    0    0    0  0.00000000000E+00  0.00000000000E+00  0.74505805969E-08  0.10566000000E+00  0.10566000000E+00 0. -1.
     999900   -1    0    0    0    0 -0.00000000000E+00 -0.00000000000E+00 -0.74505805969E-08  0.93827000000E+00  0.93827000000E+00 0.  1.
     999902    2    1    2    0    0 -0.14106612079E-01 -0.15865876684E-01  0.11980647109E-01  0.10195525831E+01  0.10192611105E+01 0.  0.
     999903    2    3    3    0    0  0.95461289729E-01  0.13274009091E-01 -0.80820374203E-01  0.12743920044E+00  0.20488039634E-01 0.  0.
         14    1    1    2    0    0  0.14106612079E-01  0.15865876684E-01 -0.11980647109E-01  0.24377416853E-01  0.00000000000E+00 0.  1.
     999901    1    3    3    0    0 -0.10956790181E+00 -0.29139885775E-01  0.92801021312E-01  0.89211338271E+00  0.88000000000E+00 0. -1.
        -11    1    4    4    0    0  0.86943840830E-01  0.12125637879E-01 -0.64321941466E-01  0.10882938862E+00  0.51100000000E-03 0. -1.
         11    1    4    4    0    0  0.85174488993E-02  0.11483712125E-02 -0.16498432737E-01  0.18609811820E-01  0.51100000000E-03 0.  1.
</event>
<event>
 8    1  0.1166736E+005  0.1043930E+01  0.7957747E-01            NaN
         13   -1    0    0    0    0  0.00000000000E+00  0.00000000000E+00  0.74505805969E-08  0.10566000000E+00  0.10566000000E+00 0. -1.
     999900   -1    0    0    0    0 -0.00000000000E+00 -0.00000000000E+00 -0.74505805969E-08  0.93827000000E+00  0.93827000000E+00 0.  1.
     999902    2    1    2    0    0 -0.21049401025E-01  0.76394565138E-02  0.88933027256E-02  0.10198358220E+01  0.10195511632E+01 0.  0.
     999903    2    3    3    0    0  0.63686459653E-01 -0.44464887223E-02  0.11074228765E+00  0.12983612995E+00  0.22755877477E-01 0.  0.
         14    1    1    2    0    0  0.21049401025E-01 -0.76394565138E-02 -0.88933027256E-02  0.24094177983E-01  0.00000000000E+00 0.  1.
     999901    1    3    3    0    0 -0.84735860678E-01  0.12085945236E-01 -0.10184898493E+00  0.88999969207E+00  0.88000000000E+00 0.  1.
        -11    1    4    4    0    0  0.21161659471E-01 -0.12359454345E-01  0.40900514564E-01  0.47683174767E-01  0.51100000000E-03 0. -1.
         11    1    4    4    0    0  0.42524800182E-01  0.79129656229E-02  0.69841773088E-01  0.82152955178E-01  0.51100000000E-03 0.  1.
</event>
<event>
 8    1  0.1166736E+005  0.1043930E+01  0.7957747E-01            NaN
         13   -1    0    0    0    0  0.00000000000E+00  0.00000000000E+00  0.74505805969E-08  0.10566000000E+00  0.10566000000E+00 0. -1.
     999900   -1    0    0    0    0 -0.00000000000E+00 -0.00000000000E+00 -0.74505805969E-08  0.93827000000E+00  0.93827000000E+00 0. -1.
     999902    2    1    2    0    0 -0.18194798364E-02 -0.23317431730E-01  0.90231442216E-03  0.10205242891E+01  0.10202558490E+01 0.  0.
     999903    2    3    3    0    0 -0.47867755677E-01 -0.55534789537E-01 -0.10795439953E+00  0.13203783116E+00  0.20109738852E-01 0.  0.
         14    1    1    2    0    0  0.18194798364E-02  0.23317431730E-01 -0.90231442216E-03  0.23405710856E-01  0.00000000000E+00 0.  1.
     999901    1    3    3    0    0  0.46048275841E-01  0.32217357807E-01  0.10885671395E+00  0.88848645799E+00  0.88000000000E+00 0.  1.
        -11    1    4    4    0    0 -0.31610182296E-01 -0.37432516678E-01 -0.54393619869E-01  0.73207403540E-01  0.51100000000E-03 0.  1.
         11    1    4    4    0    0 -0.16257573382E-01 -0.18102272859E-01 -0.53560779660E-01  0.58830427618E-01  0.51100000000E-03 0. -1.
</event>
<event>
 8    1  0.1166736E+005  0.1043930E+01  0.7957747E-01            NaN
         13   -1    0    0    0    0  0.00000000000E+00  0.00000000000E+00  0.74505805969E-08  0.10566000000E+00  0.10566000000E+00 0.  1.
     999900   -1    0    0    0    0 -0.00000000000E+00 -0.00000000000E+00 -0.74505805969E-08  0.93827000000E+00  0.93827000000E+00 0. -1.
     999902    2    1    2    0    0 -0.21514761961E-01 -0.28398226516E-02  0.10685873102E-01  0.10197403853E+01  0.10194534398E+01 0.  0.
     999903    2    3    3    0    0  0.10366784872E+00  0.58267064762E-01 -0.40636260505E-01  0.12730624258E+00  0.20334700383E-01 0.  0.
         14    1    1    2    0    0  0.21514761961E-01  0.28398226516E-02 -0.10685873102E-01  0.24189614690E-01  0.00000000000E+00 0. -1.
     999901    1    3    3    0    0 -0.12518261068E+00 -0.61106887414E-01  0.51322133607E-01  0.89243414273E+00  0.88000000000E+00 0.  1.
        -11    1    4    4    0    0  0.83821934016E-01  0.38023887594E-01 -0.27552949878E-01  0.96079960543E-01  0.51100000000E-03 0.  1.
         11    1    4    4    0    0  0.19845914699E-01  0.20243177169E-01 -0.13083310627E-01  0.31226282041E-01  0.51100000000E-03 0. -1.
</event>
<event>
 8    1  0.1166736E+005  0.1043930E+01  0.7957747E-01            NaN
         13   -1    0    0    0    0  0.00000000000E+00  0.00000000000E+00  0.74505805969E-08  0.10566000000E+00  0.10566000000E+00 0.  1.
     999900   -1    0    0    0    0 -0.00000000000E+00 -0.00000000000E+00 -0.74505805969E-08  0.93827000000E+00  0.93827000000E+00 0.  1.
     999902    2    1    2    0    0 -0.50480798165E-02 -0.15007540703E-01 -0.16602259619E-01  0.10209878028E+01  0.10207300079E+01 0.  0.
     999903    2    3    3    0    0  0.63057591732E-01  0.10604395650E+00  0.30844266266E-01  0.12883141500E+00  0.20605439722E-01 0.  0.
         14    1    1    2    0    0  0.50480798165E-02  0.15007540703E-01  0.16602259619E-01  0.22942197197E-01  0.00000000000E+00 0.  1.
     999901    1    3    3    0    0 -0.68105671549E-01 -0.12105149720E+00 -0.47446525885E-01  0.89215638780E+00  0.88000000000E+00 0.  1.
        -11    1    4    4    0    0  0.48408584654E-01  0.94487981775E-01  0.29105581685E-01  0.11008526593E+00  0.51100000000E-03 0. -1.
         11    1    4    4    0    0  0.14649007078E-01  0.11555974721E-01  0.17386845805E-02  0.18746149077E-01  0.51100000000E-03 0.  1.
</event>
<event>
 8    1  0.1166736E+005  0.1043930E+01  0.7957747E-01            NaN
         13   -1    0    0    0    0  0.00000000000E+00  0.00000000000E+00  0.74505805969E-08  0.10566000000E+00  0.10566000000E+00 0. -1.
     999900   -1    0    0    0    0 -0.00000000000E+00 -0.00000000000E+00 -0.74505805969E-08  0.93827000000E+00  0.93827000000E+00 0.  1.
     999902    2    1    2    0    0 -0.46254010078E-02 -0.79703253912E-02 -0.22022564866E-01  0.10200571329E+01  0.10197777408E+01 0.  0.
     999903    2    3    3    0    0  0.15603780672E-01 -0.68857888759E-01  0.10520984585E+00  0.12859507451E+00  0.21970314271E-01 0.  0.
         14    1    1    2    0    0  0.46254010078E-02  0.79703253912E-02  0.22022564866E-01  0.23872867122E-01  0.00000000000E+00 0. -1.
     999901    1    3    3    0    0 -0.20229181680E-01  0.60887563368E-01 -0.12723241072E+00  0.89146205836E+00  0.88000000000E+00 0.  1.
        -11    1    4    4    0    0  0.16276528627E-01 -0.25280367622E-01  0.48582933110E-01  0.57136545939E-01  0.51100000000E-03 0.  1.
         11    1    4    4    0    0 -0.67274795562E-03 -0.43577521137E-01  0.56626912743E-01  0.71458528575E-01  0.51100000000E-03 0. -1.
</event>
<event>
 8    1  0.1166736E+005  0.1043930E+01  0.7957747E-01            NaN
         13   -1    0    0    0    0  0.00000000000E+00  0.00000000000E+00  0.74505805969E-08  0.10566000000E+00  0.10566000000E+00 0. -1.
     999900   -1    0    0    0    0 -0.00000000000E+00 -0.00000000000E+00 -0.74505805969E-08  0.93827000000E+00  0.93827000000E+00 0.  1.
     999902    2    1    2    0    0  0.57341830315E-03  0.17514786776E-02 -0.23482311099E-01  0.10203754798E+01  0.10201035753E+01 0.  0.
     999903    2    3    3    0    0 -0.33423919252E-01  0.56501104014E-01  0.10824880619E+00  0.12823960021E+00  0.20446463915E-01 0.  0.
         14    1    1    2    0    0 -0.57341830315E-03 -0.17514786776E-02  0.23482311099E-01  0.23554520174E-01  0.00000000000E+00 0. -1.
     999901    1    3    3    0    0  0.33997337555E-01 -0.54749625337E-01 -0.13173111729E+00  0.89213587962E+00  0.88000000000E+00 0.  1.
        -11    1    4    4    0    0 -0.15603639735E-01  0.21575570379E-01  0.26485151265E-01  0.37559328650E-01  0.51100000000E-03 0.  1.
         11    1    4    4    0    0 -0.17820279517E-01  0.34925533635E-01  0.81763654929E-01  0.90680271559E-01  0.51100000000E-03 0. -1.
</event>
<event>
 8    1  0.1166736E+005  0.1043930E+01  0.7957747E-01            NaN
         13   -1    0    0    0    0  0.00000000000E+00  0.00000000000E+00  0.74505805969E-08  0.10566000000E+00  0.10566000000E+00 0. -1.
     999900   -1    0    0    0    0 -0.00000000000E+00 -0.00000000000E+00 -0.74505805969E-08  0.93827000000E+00  0.93827000000E+00 0. -1.
     999902    2    1    2    0    0 -0.26121924642E-01 -0.42330366290E-02 -0.68626420821E-03  0.10174584208E+01  0.10171140023E+01 0.  0.
     999903    2    3    3    0    0  0.14880678985E-01  0.92311830383E-01 -0.83958857869E-01  0.12732559381E+00  0.20489226168E-01 0.  0.
         14    1    1    2    0    0  0.26121924642E-01  0.42330366290E-02  0.68626420821E-03  0.26471579187E-01  0.00000000000E+00 0.  1.
     999901    1    3    3    0    0 -0.41002603627E-01 -0.96544867012E-01  0.83272593661E-01  0.89013282700E+00  0.88000000000E+00 0.  1.
        -11    1    4    4    0    0  0.58581948423E-02  0.72692796236E-01 -0.72662401261E-01  0.10294972923E+00  0.51100000000E-03 0.  1.
         11    1    4    4    0    0  0.90224841428E-02  0.19619034147E-01 -0.11296456609E-01  0.24375864577E-01  0.51100000000E-03 0. -1.
</event>
<event>
 8    1  0.1166736E+005  0.1043930E+01  0.7957747E-01            NaN
         13   -1    0    0    0    0  0.00000000000E+00  0.00000000000E+00  0.74505805969E-08  0.10566000000E+00  0.10566000000E+00 0. -1.
     999900   -1    0    0    0    0 -0.00000000000E+00 -0.00000000000E+00 -0.74505805969E-08  0.93827000000E+00  0.93827000000E+00 0. -1.
     999902    2    1    2    0    0 -0.13537645234E-01  0.10677621822E-01  0.16513050738E-01  0.10200561589E+01  0.10197767437E+01 0.  0.
     999903    2    3    3    0    0 -0.65333444669E-01  0.84265501633E-01 -0.73152598214E-01  0.13093417088E+00  0.20574759345E-01 0.  0.
         14    1    1    2    0    0  0.13537645234E-01 -0.10677621822E-01 -0.16513050738E-01  0.23873841143E-01  0.00000000000E+00 0.  1.
     999901    1    3    3    0    0  0.51795799435E-01 -0.73587879811E-01  0.89665648952E-01  0.88912198797E+00  0.88000000000E+00 0.  1.
        -11    1    4    4    0    0 -0.72583689601E-02  0.21151620951E-01 -0.10446675662E-01  0.24687428829E-01  0.51100000000E-03 0.  1.
         11    1    4    4    0    0 -0.58075075708E-01  0.63113880682E-01 -0.62705922552E-01  0.10624674206E+00  0.51100000000E-03 0. -1.
</event>
<event>
 8    1  0.1166736E+005  0.1043930E+01  0.7957747E-01            NaN
         13   -1    0    0    0    0  0.00000000000E+00  0.00000000000E+00  0.74505805969E-08  0.10566000000E+00  0.10566000000E+00 0.  1.
     999900   -1    0    0    0    0 -0.00000000000E+00 -0.00000000000E+00 -0.74505805969E-08  0.93827000000E+00  0.93827000000E+00 0.  1.
     999902    2    1    2    0    0  0.11204962235E-01  0.18638024474E-01  0.90429506739E-02  0.10203778856E+01  0.10201060373E+01 0.  0.
     999903    2    3    3    0    0 -0.52613079464E-01  0.11968325586E+00  0.50111514797E-02  0.13229053820E+00  0.19582058011E-01 0.  0.
         14    1    1    2    0    0 -0.11204962235E-01 -0.18638024474E-01 -0.90429506739E-02  0.23552114383E-01  0.00000000000E+00 0. -1.
     999901    1    3    3    0    0  0.63818041699E-01 -0.10104523138E+00  0.40317991942E-02  0.88808734741E+00  0.88000000000E+00 0.  1.
        -11    1    4    4    0    0 -0.15295043586E-01  0.53720520519E-01  0.80811650344E-02  0.56439339405E-01  0.51100000000E-03 0. -1.
         11    1    4    4    0    0 -0.37318035878E-01  0.65962735338E-01 -0.30700135547E-02  0.75851198799E-01  0.51100000000E-03 0.  1.
</event>
<event>
 8    1  0.1166736E+005  0.1043930E+01  0.7957747E-01            NaN
         13   -1    0    0    0    0  0.00000000000E+00  0.00000000000E+00  0.74505805969E-08  0.10566000000E+00  0.10566000000E+00 0. -1.
     999900   -1    0    0    0    0 -0.00000000000E+00 -0.00000000000E+00 -0.74505805969E-08  0.93827000000E+00  0.93827000000E+00 0. -1.
     999902    2    1    2    0    0 -0.65439932724E-02  0.66680565397E-02 -0.22323598532E-01  0.10197302091E+01  0.10194430193E+01 0.  0.
     999903    2    3    3    0    0 -0.10019225683E+00 -0.12685819275E-02  0.77926377161E-01  0.12906582504E+00  0.23353143381E-01 0.  0.
         14    1    1    2    0    0  0.65439932724E-02 -0.66680565397E-02  0.22323598532E-01  0.24199790854E-01  0.00000000000E+00 0. -1.
     999901    1    3    3    0    0  0.93648263558E-01  0.79366384673E-02 -0.10024997569E+00  0.89066438411E+00  0.88000000000E+00 0. -1.
        -11    1    4    4    0    0 -0.55504778873E-01 -0.78517525574E-02  0.31562139316E-01  0.64333974346E-01  0.51100000000E-03 0. -1.
         11    1    4    4    0    0 -0.44687477958E-01  0.65831706298E-02  0.46364237845E-01  0.64731850689E-01  0.51100000000E-03 0.  1.
</event>
<event>
 8    1  0.1166736E+005  0.1043930E+01  0.7957747E-01            NaN
         13   -1    0    0    0    0  0.00000000000E+00  0.00000000000E+00  0.74505805969E-08  0.10566000000E+00  0.10566000000E+00 0.  1.
     999900   -1    0    0    0    0 -0.00000000000E+00 -0.00000000000E+00 -0.74505805969E-08  0.93827000000E+00  0.93827000000E+00 0. -1.
     999902    2    1    2    0    0 -0.13214247051E-01 -0.17415970052E-01  0.66915556671E-02  0.10210671643E+01  0.10208111700E+01 0.  0.
     999903    2    3    3    0    0  0.45344096394E-01  0.92675488657E-01  0.75804637712E-01  0.12959320117E+00  0.20080373890E-01 0.  0.
         14    1    1    2    0    0  0.13214247051E-01  0.17415970052E-01 -0.66915556671E-02  0.22862835678E-01  0.00000000000E+00 0.  1.
     999901    1    3    3    0    0 -0.58558343444E-01 -0.11009145871E+00 -0.69113082045E-01  0.89147396315E+00  0.88000000000E+00 0. -1.
        -11    1    4    4    0    0  0.33112446860E-02  0.23016106240E-01  0.22262268471E-01  0.32195888034E-01  0.51100000000E-03 0.  1.
         11    1    4    4    0    0  0.42032851707E-01  0.69659382416E-01  0.53542369241E-01  0.97397313137E-01  0.51100000000E-03 0. -1.
</event>
<event>
 8    1  0.1166736E+005  0.1043930E+01  0.7957747E-01            NaN
         13   -1    0    0    0    0  0.00000000000E+00  0.00000000000E+00  0.74505805969E-08  0.10566000000E+00  0.10566000000E+00 0.  1.
     999900   -1    0    0    0    0 -0.00000000000E+00 -0.00000000000E+00 -0.74505805969E-08  0.93827000000E+00  0.93827000000E+00 0.  1.
     999902    2    1    2    0    0  0.56929622146E-02 -0.51905955745E-02 -0.21999294348E-01  0.10206207518E+01  0.10203545452E+01 0.  0.
     999903    2    3    3    0    0 -0.12584622562E+00 -0.19198364027E-01  0.16445663367E-01  0.12990374268E+00  0.19966793253E-01 0.  0.
         14    1    1    2    0    0 -0.56929622146E-02  0.51905955745E-02  0.21999294348E-01  0.23309248229E-01  0.00000000000E+00 0.  1.
     999901    1    3    3    0    0  0.13153918784E+00  0.14007768453E-01 -0.38444957715E-01  0.89071700909E+00  0.88000000000E+00 0.  1.
        -11    1    4    4    0    0 -0.68939246978E-01 -0.13432280521E-02  0.47043075391E-02  0.69114511254E-01  0.51100000000E-03 0.  1.
         11    1    4    4    0    0 -0.56906978647E-01 -0.17855135975E-01  0.11741355828E-01  0.60789231423E-01  0.51100000000E-03 0. -1.
</event>
<event>
 8    1  0.1166736E+005  0.1043930E+01  0.7957747E-01            NaN
         13   -1    0    0    0    0  0.00000000000E+00  0.00000000000E+00  0.74505805969E-08  0.10566000000E+00  0.10566000000E+00 0. -1.
     999900   -1    0    0    0    0 -0.00000000000E+00 -0.00000000000E+00 -0.74505805969E-08  0.93827000000E+00  0.93827000000E+00 0. -1.
     999902    2    1    2    0    0  0.17853302308E-01 -0.13590096103E-01 -0.73928109689E-02  0.10203061822E+01  0.10200326566E+01 0.  0.
     999903    2    3    3    0    0 -0.46589846905E-01 -0.87867681958E-01 -0.84060416680E-01  0.13151599263E+00  0.18410847271E-01 0.  0.
         14    1    1    2    0    0 -0.17853302308E-01  0.13590096103E-01  0.73928109689E-02  0.23623817841E-01  0.00000000000E+00 0. -1.
     999901    1    3    3    0    0  0.64443149213E-01  0.74277585855E-01  0.76667605711E-01  0.88879018953E+00  0.88000000000E+00 0.  1.
        -11    1    4    4    0    0 -0.32088263821E-01 -0.48019688936E-01 -0.57375650874E-01  0.81411139500E-01  0.51100000000E-03 0.  1.
         11    1    4    4    0    0 -0.14501583084E-01 -0.39847993022E-01 -0.26684765806E-01  0.50104853128E-01  0.51100000000E-03 0. -1.
</event>
<event>
 7    1  0.1166736E+005  0.1043930E+01  0.7957747E-01            NaN
         13   -1    0    0    0    0  0.00000000000E+00  0.00000000000E+00  0.74505805969E-08  0.10566000000E+00  0.10566000000E+00 0.  1.
     999900   -1    0    0    0    0 -0.00000000000E+00 -0.00000000000E+00 -0.74505805969E-08  0.93827000000E+00  0.93827000000E+00 0.  1.
     999903    2    1    2    0    0 -0.42598065348E-01 -0.55523046501E-01  0.54688105399E-01  0.91031595025E-01  0.19963931390E-01 0.  0.
         14    1    1    2    0    0  0.51821680657E-01  0.30663710275E-01  0.32092274933E-01  0.68232425021E-01  0.00000000000E+00 0.  1.
     999901    1    1    2    0    0 -0.92236153088E-02  0.24859336226E-01 -0.86780380332E-01  0.88466597995E+00  0.88000000000E+00 0.  1.
        -11    1    3    3    0    0 -0.44014227343E-01 -0.51373570938E-01  0.47740965775E-01  0.82800706118E-01  0.51100000000E-03 0. -1.
         11    1    3    3    0    0  0.14161619950E-02 -0.41494755634E-02  0.69471396243E-02  0.82308889075E-02  0.51100000000E-03 0.  1.
</event>
<event>
 8    1  0.1166736E+005  0.1043930E+01  0.7957747E-01            NaN
         13   -1    0    0    0    0  0.00000000000E+00  0.00000000000E+00  0.74505805969E-08  0.10566000000E+00  0.10566000000E+00 0.  1.
     999900   -1    0    0    0    0 -0.00000000000E+00 -0.00000000000E+00 -0.74505805969E-08  0.93827000000E+00  0.93827000000E+00 0.  1.
     999902    2    1    2    0    0  0.32672653682E-02  0.73942263038E-03 -0.23681077704E-01  0.10200131605E+01  0.10197327260E+01 0.  0.
     999903    2    3    3    0    0  0.12171405590E+00 -0.42319867273E-01  0.61010541315E-02  0.13053538115E+00  0.19924364502E-01 0.  0.
         14    1    1    2    0    0 -0.32672653682E-02 -0.73942263038E-03  0.23681077704E-01  0.23916839466E-01  0.00000000000E+00 0.  1.
     999901    1    3    3    0    0 -0.11844679054E+00  0.43059289903E-01 -0.29782131836E-01  0.88947777938E+00  0.88000000000E+00 0. -1.
        -11    1    4    4    0    0  0.83604210916E-01 -0.19208441779E-01  0.54628173709E-02  0.85957732713E-01  0.51100000000E-03 0.  1.
         11    1    4    4    0    0  0.38109844987E-01 -0.23111425494E-01  0.63823676059E-03  0.44577648440E-01  0.51100000000E-03 0. -1.
</event>
<event>
 8    1  0.1166736E+005  0.1043930E+01  0.7957747E-01            NaN
         13   -1    0    0    0    0  0.00000000000E+00  0.00000000000E+00  0.74505805969E-08  0.10566000000E+00  0.10566000000E+00 0. -1.
     999900   -1    0    0    0    0 -0.00000000000E+00 -0.00000000000E+00 -0.74505805969E-08  0.93827000000E+00  0.93827000000E+00 0. -1.
     999902    2    1    2    0    0 -0.19335443448E-01  0.56439602875E-02  0.12277191527E-01  0.10203409540E+01  0.10200682424E+01 0.  0.
     999903    2    3    3    0    0 -0.10304462592E+00 -0.78567929863E-01 -0.16407413086E-01  0.13190318112E+00  0.18388351000E-01 0.  0.
         14    1    1    2    0    0  0.19335443448E-01 -0.56439602875E-02 -0.12277191527E-01  0.23589046035E-01  0.00000000000E+00 0. -1.
     999901    1    3    3    0    0  0.83709182469E-01  0.84211890150E-01  0.28684604613E-01  0.88843777284E+00  0.88000000000E+00 0.  1.
        -11    1    4    4    0    0 -0.20939635551E-01 -0.15249569205E-01 -0.10788396641E-01  0.28065429286E-01  0.51100000000E-03 0. -1.
         11    1    4    4    0    0 -0.82104990366E-01 -0.63318360658E-01 -0.56190164455E-02  0.10383775184E+00  0.51100000000E-03 0.  1.
</event>
<event>
 8    1  0.1166736E+005  0.1043930E+01  0.7957747E-01            NaN
         13   -1    0    0    0    0  0.00000000000E+00  0.00000000000E+00  0.74505805969E-08  0.10566000000E+00  0.10566000000E+00 0. -1.
     999900   -1    0    0    0    0 -0.00000000000E+00 -0.00000000000E+00 -0.74505805969E-08  0.93827000000E+00  0.93827000000E+00 0. -1.
     999902    2    1    2    0    0 -0.23701146542E-01  0.94541122250E-03  0.76770060127E-03  0.10201975852E+01  0.10199215094E+01 0.  0.
     999903    2    3    3    0    0  0.11108143630E+00  0.33143876620E-01  0.49886828822E-01  0.12800042390E+00  0.21396513284E-01 0.  0.
         14    1    1    2    0    0  0.23701146542E-01 -0.94541122250E-03 -0.76770060127E-03  0.23732414837E-01  0.00000000000E+00 0.  1.
     999901    1    3    3    0    0 -0.13478258284E+00 -0.32198465398E-01 -0.49119128221E-01  0.89219716126E+00  0.88000000000E+00 0. -1.
        -11    1    4    4    0    0  0.77310367395E-01  0.21581363434E-01  0.23593656967E-01  0.83663432421E-01  0.51100000000E-03 0.  1.
         11    1    4    4    0    0  0.33771068903E-01  0.11562513186E-01  0.26293171855E-01  0.44336991477E-01  0.51100000000E-03 0. -1.
</event>
<event>
 8    1  0.1166736E+005  0.1043930E+01  0.7957747E-01            NaN
         13   -1    0    0    0    0  0.00000000000E+00  0.00000000000E+00  0.74505805969E-08  0.10566000000E+00  0.10566000000E+00 0.  1.
     999900   -1    0    0    0    0 -0.00000000000E+00 -0.00000000000E+00 -0.74505805969E-08  0.93827000000E+00  0.93827000000E+00 0. -1.
     999902    2    1    2    0    0 -0.50218079691E-02 -0.92457894104E-02 -0.16307052268E-01  0.10245232195E+01  0.10243393989E+01 0.  0.
     999903    2    3    3    0    0  0.11795429029E+00 -0.52290268161E-01 -0.32445301370E-01  0.13478371209E+00  0.21597794354E-01 0.  0.
         14    1    1    2    0    0  0.50218079691E-02  0.92457894104E-02  0.16307052268E-01  0.19406780536E-01  0.00000000000E+00 0.  1.
     999901    1    3    3    0    0 -0.12297609826E+00  0.43044478751E-01  0.16138249103E-01  0.88973950737E+00  0.88000000000E+00 0. -1.
        -11    1    4    4    0    0  0.57214877169E-01 -0.33427522873E-01 -0.24660688109E-01  0.70706096724E-01  0.51100000000E-03 0.  1.
         11    1    4    4    0    0  0.60739413126E-01 -0.18862745288E-01 -0.77846132614E-02  0.64077615368E-01  0.51100000000E-03 0. -1.
</event>
<event>
 8    1  0.1166736E+005  0.1043930E+01  0.7957747E-01            NaN
         13   -1    0    0    0    0  0.00000000000E+00  0.00000000000E+00  0.74505805969E-08  0.10566000000E+00  0.10566000000E+00 0.  1.
     999900   -1    0    0    0    0 -0.00000000000E+00 -0.00000000000E+00 -0.74505805969E-08  0.93827000000E+00  0.93827000000E+00 0. -1.
     999902    2    1    2    0    0 -0.16867290913E-01 -0.25625571660E-01  0.12628316390E-02  0.10132254373E+01  0.10127600983E+01 0.  0.
     999903    2    3    3    0    0  0.68833112275E-01 -0.70527688252E-01 -0.73703659429E-01  0.12475442825E+00  0.20476469373E-01 0.  0.
         14    1    1    2    0    0  0.16867290913E-01  0.25625571660E-01 -0.12628316390E-02  0.30704562681E-01  0.00000000000E+00 0. -1.
     999901    1    3    3    0    0 -0.85700403188E-01  0.44902116592E-01  0.74966491068E-01  0.88847100907E+00  0.88000000000E+00 0. -1.
        -11    1    4    4    0    0  0.40294848364E-01 -0.53658883141E-01 -0.44041853391E-01  0.80267655477E-01  0.51100000000E-03 0. -1.
         11    1    4    4    0    0  0.28538263911E-01 -0.16868805111E-01 -0.29661806039E-01  0.44486772769E-01  0.51100000000E-03 0.  1.
</event>
<event>
 8    1  0.1166736E+005  0.1043930E+01  0.7957747E-01            NaN
         13   -1    0    0    0    0  0.00000000000E+00  0.00000000000E+00  0.74505805969E-08  0.10566000000E+00  0.10566000000E+00 0.  1.
     999900   -1    0    0    0    0 -0.00000000000E+00 -0.00000000000E+00 -0.74505805969E-08  0.93827000000E+00  0.93827000000E+00 0. -1.
     999902    2    1    2    0    0 -0.18856341942E-01 -0.11637360948E-01 -0.17995734461E-03  0.10217709796E+01  0.10215306714E+01 0.  0.
     999903    2    3    3    0    0  0.39404016932E-01  0.10999867987E+00  0.53159093191E-01  0.12989954818E+00  0.19890130801E-01 0.  0.
         14    1    1    2    0    0  0.18856341942E-01  0.11637360948E-01  0.17995734461E-03  0.22159020419E-01  0.00000000000E+00 0.  1.
     999901    1    3    3    0    0 -0.58260358874E-01 -0.12163604082E+00 -0.53339050536E-01  0.89187143140E+00  0.88000000000E+00 0.  1.
        -11    1    4    4    0    0  0.29540174014E-02  0.34830474727E-01  0.14497937953E-01  0.37846261565E-01  0.51100000000E-03 0. -1.
         11    1    4    4    0    0  0.36449999531E-01  0.75168205147E-01  0.38661155238E-01  0.92053286612E-01  0.51100000000E-03 0.  1.
</event>
<event>
 8    1  0.1166736E+005  0.1043930E+01  0.7957747E-01            NaN
         13   -1    0    0    0    0  0.00000000000E+00  0.00000000000E+00  0.74505805969E-08  0.10566000000E+00  0.10566000000E+00 0.  1.
     999900   -1    0    0    0    0 -0.00000000000E+00 -0.00000000000E+00 -0.74505805969E-08  0.93827000000E+00  0.93827000000E+00 0.  1.
     999902    2    1    2    0    0  0.12858474111E-01  0.19494551827E-01 -0.12221110709E-03  0.10205763527E+01  0.10203091192E+01 0.  0.
     999903    2    3    3    0    0 -0.89222003947E-01 -0.24420385340E-01 -0.88007741149E-01  0.12924430900E+00  0.20045141510E-01 0.  0.
         14    1    1    2    0    0 -0.12858474111E-01 -0.19494551827E-01  0.12221110709E-03  0.23353647316E-01  0.00000000000E+00 0. -1.
     999901    1    3    3    0    0  0.10208047806E+00  0.43914937167E-01  0.87885530042E-01  0.89133204368E+00  0.88000000000E+00 0. -1.
        -11    1    4    4    0    0 -0.54909203331E-01 -0.22248328486E-01 -0.46318965894E-01  0.75204497561E-01  0.51100000000E-03 0. -1.
         11    1    4    4    0    0 -0.34312800616E-01 -0.21720568542E-02 -0.41688775255E-01  0.54039811439E-01  0.51100000000E-03 0.  1.
</event>
<event>
 8    1  0.1166736E+005  0.1043930E+01  0.7957747E-01            NaN
         13   -1    0    0    0    0  0.00000000000E+00  0.00000000000E+00  0.74505805969E-08  0.10566000000E+00  0.10566000000E+00 0.  1.
     999900   -1    0    0    0    0 -0.00000000000E+00 -0.00000000000E+00 -0.74505805969E-08  0.93827000000E+00  0.93827000000E+00 0. -1.
     999902    2    1    2    0    0 -0.22189393425E-01 -0.44796728909E-02  0.25135471726E-02  0.10211538157E+01  0.10208997800E+01 0.  0.
     999903    2    3    3    0    0  0.35497920898E-01 -0.29793899270E-01 -0.12026971483E+00  0.13039887430E+00  0.19780881959E-01 0.  0.
         14    1    1    2    0    0  0.22189393425E-01  0.44796728909E-02 -0.25135471726E-02  0.22776184254E-01  0.00000000000E+00 0.  1.
     999901    1    3    3    0    0 -0.57687314323E-01  0.25314226379E-01  0.12278326200E+00  0.89075494145E+00  0.88000000000E+00 0.  1.
        -11    1    4    4    0    0  0.15442324430E-01 -0.25379808894E-01 -0.75725728469E-01  0.81346463699E-01  0.51100000000E-03 0.  1.
         11    1    4    4    0    0  0.20055596468E-01 -0.44140903757E-02 -0.44543986359E-01  0.49052410596E-01  0.51100000000E-03 0. -1.
</event>
<event>
 8    1  0.1166736E+005  0.1043930E+01  0.7957747E-01            NaN
         13   -1    0    0    0    0  0.00000000000E+00  0.00000000000E+00  0.74505805969E-08  0.10566000000E+00  0.10566000000E+00 0.  1.
     999900   -1    0    0    0    0 -0.00000000000E+00 -0.00000000000E+00 -0.74505805969E-08  0.93827000000E+00  0.93827000000E+00 0.  1.
     999902    2    1    2    0    0  0.14264495578E-01 -0.48695894455E-02  0.17565800789E-01  0.10207838104E+01  0.10205213577E+01 0.  0.
     999903    2    3    3    0    0  0.10515335322E+00  0.72366980881E-01 -0.27273737367E-01  0.13160618112E+00  0.16796503897E-01 0.  0.
         14    1    1    2    0    0 -0.14264495578E-01  0.48695894455E-02 -0.17565800789E-01  0.23146189596E-01  0.00000000000E+00 0. -1.
     999901    1    3    3    0    0 -0.90888857643E-01 -0.77236570326E-01  0.44839538157E-01  0.88917762929E+00  0.88000000000E+00 0. -1.
        -11    1    4    4    0    0  0.22406777768E-01  0.23571467744E-01 -0.40692760664E-02  0.32779534931E-01  0.51100000000E-03 0.  1.
         11    1    4    4    0    0  0.82746575453E-01  0.48795513137E-01 -0.23204461301E-01  0.98826646188E-01  0.51100000000E-03 0. -1.
</event>
<event>
 8    1  0.1166736E+005  0.1043930E+01  0.7957747E-01            NaN
         13   -1    0    0    0    0  0.00000000000E+00  0.00000000000E+00  0.74505805969E-08  0.10566000000E+00  0.10566000000E+00 0.  1.
     999900   -1    0    0    0    0 -0.00000000000E+00 -0.00000000000E+00 -0.74505805969E-08  0.93827000000E+00  0.93827000000E+00 0. -1.
     999902    2    1    2    0    0  0.17162328451E-01  0.14140069548E-01 -0.10740731210E-01  0.10192348508E+01  0.10189356362E+01 0.  0.
     999903    2    3    3    0    0 -0.11752413168E+00  0.33373609688E-01  0.32068962965E-01  0.12775123265E+00  0.19137390243E-01 0.  0.
         14    1    1    2    0    0 -0.17162328451E-01 -0.14140069548E-01  0.10740731210E-01  0.24695149151E-01  0.00000000000E+00 0.  1.
     999901    1    3    3    0    0  0.13468646013E+00 -0.19233540140E-01 -0.42809694175E-01  0.89148361820E+00  0.88000000000E+00 0.  1.
        -11    1    4    4    0    0 -0.59480266976E-01  0.26709065159E-01  0.15522451988E-01  0.67025994643E-01  0.51100000000E-03 0. -1.
         11    1    4    4    0    0 -0.58043864707E-01  0.66645445293E-02  0.16546510977E-01  0.60725238002E-01  0.51100000000E-03 0.  1.
</event>
<event>
 8    1  0.1166736E+005  0.1043930E+01  0.7957747E-01            NaN
         13   -1    0    0    0    0  0.00000000000E+00  0.00000000000E+00  0.74505805969E-08  0.10566000000E+00  0.10566000000E+00 0.  1.
     999900   -1    0    0    0    0 -0.00000000000E+00 -0.00000000000E+00 -0.74505805969E-08  0.93827000000E+00  0.93827000000E+00 0. -1.
     999902    2    1    2    0    0 -0.19954355108E-01  0.96544820054E-02 -0.85152780115E-02  0.10201835209E+01  0.10199071139E+01 0.  0.
     999903    2    3    3    0    0 -0.46117817425E-02 -0.12169494374E+00  0.38503034447E-01  0.12906131383E+00  0.18531357337E-01 0.  0.
         14    1    1    2    0    0  0.19954355108E-01 -0.96544820054E-02  0.85152780115E-02  0.23746479111E-01  0.00000000000E+00 0.  1.
     999901    1    3    3    0    0 -0.15342573366E-01  0.13134942574E+00 -0.47018312458E-01  0.89112220706E+00  0.88000000000E+00 0.  1.
        -11    1    4    4    0    0  0.19399859288E-02 -0.53210265050E-01  0.81667601171E-02  0.53870705805E-01  0.51100000000E-03 0.  1.
         11    1    4    4    0    0 -0.65517676713E-02 -0.68484678688E-01  0.30336274330E-01  0.75190608029E-01  0.51100000000E-03 0. -1.
</event>
<event>
 8    1  0.1166736E+005  0.1043930E+01  0.7957747E-01            NaN
         13   -1    0    0    0    0  0.00000000000E+00  0.00000000000E+00  0.74505805969E-08  0.10566000000E+00  0.10566000000E+00 0. -1.
     999900   -1    0    0    0    0 -0.00000000000E+00 -0.00000000000E+00 -0.74505805969E-08  0.93827000000E+00  0.93827000000E+00 0. -1.
     999902    2    1    2    0    0 -0.22900362037E-01  0.26497548367E-02 -0.10542292509E-01  0.10185806861E+01  0.10182652044E+01 0.  0.
     999903    2    3    3    0    0 -0.30389856791E-01 -0.68311790702E-02  0.12300326059E+00  0.12842317457E+00  0.19811644230E-01 0.  0.
         14    1    1    2    0    0  0.22900362037E-01 -0.26497548367E-02  0.10542292509E-01  0.25349313866E-01  0.00000000000E+00 0.  1.
     999901    1    3    3    0    0  0.74894947543E-02  0.94809339069E-02 -0.13354555310E+00  0.89015751156E+00  0.88000000000E+00 0. -1.
        -11    1    4    4    0    0 -0.27977168393E-01 -0.11414152169E-01  0.88215633000E-01  0.93248398633E-01  0.51100000000E-03 0.  1.
         11    1    4    4    0    0 -0.24126883983E-02  0.45829730989E-02  0.34787627593E-01  0.35174775938E-01  0.51100000000E-03 0. -1.
</event>
<event>
 8    1  0.1166736E+005  0.1043930E+01  0.7957747E-01            NaN
         13   -1    0    0    0    0  0.00000000000E+00  0.00000000000E+00  0.74505805969E-08  0.10566000000E+00  0.10566000000E+00 0. -1.
     999900   -1    0    0    0    0 -0.00000000000E+00 -0.00000000000E+00 -0.74505805969E-08  0.93827000000E+00  0.93827000000E+00 0. -1.
     999902    2    1    2    0    0  0.11264094112E-01 -0.16151861924E-01  0.99162740098E-02  0.10218824389E+01  0.10216445683E+01 0.  0.
     999903    2    3    3    0    0 -0.10823687516E+00 -0.71760575798E-01 -0.10355205374E-01  0.13183539319E+00  0.20212353571E-01 0.  0.
         14    1    1    2    0    0 -0.11264094112E-01  0.16151861924E-01 -0.99162740098E-02  0.22047561090E-01  0.00000000000E+00 0.  1.
     999901    1    3    3    0    0  0.11950096927E+00  0.55608713874E-01  0.20271479384E-01  0.89004704572E+00  0.88000000000E+00 0.  1.
        -11    1    4    4    0    0 -0.75894732081E-01 -0.58613247484E-01 -0.19151109539E-02  0.95913773303E-01  0.51100000000E-03 0.  1.
         11    1    4    4    0    0 -0.32342143077E-01 -0.13147328314E-01 -0.84400944202E-02  0.35921619889E-01  0.51100000000E-03 0. -1.
</event>
<event>
 8    1  0.1166736E+005  0.1043930E+01  0.7957747E-01            NaN
         13   -1    0    0    0    0  0.00000000000E+00  0.00000000000E+00  0.74505805969E-08  0.10566000000E+00  0.10566000000E+00 0.  1.
     999900   -1    0    0    0    0 -0.00000000000E+00 -0.00000000000E+00 -0.74505805969E-08  0.93827000000E+00  0.93827000000E+00 0. -1.
     999902    2    1    2    0    0 -0.84782892457E-02  0.54518113614E-02 -0.20048803365E-01  0.10214898986E+01  0.10212433866E+01 0.  0.
     999903    2    3    3    0    0 -0.62162982758E-01 -0.11102798419E+00 -0.29547177757E-01  0.13214193056E+00  0.19924969265E-01 0.  0.
         14    1    1    2    0    0  0.84782892457E-02 -0.54518113614E-02  0.20048803365E-01  0.22440101426E-01  0.00000000000E+00 0.  1.
     999901    1    3    3    0    0  0.53684693513E-01  0.11647979555E+00  0.94983743915E-02  0.88934796801E+00  0.88000000000E+00 0.  1.
        -11    1    4    4    0    0 -0.21591206515E-01 -0.58911469673E-01 -0.14054946979E-01  0.64300420787E-01  0.51100000000E-03 0.  1.
         11    1    4    4    0    0 -0.40571776243E-01 -0.52116514519E-01 -0.15492230777E-01  0.67841509775E-01  0.51100000000E-03 0. -1.
</event>
<event>
 8    1  0.1166736E+005  0.1043930E+01  0.7957747E-01            NaN
         13   -1    0    0    0    0  0.00000000000E+00  0.00000000000E+00  0.74505805969E-08  0.10566000000E+00  0.10566000000E+00 0.  1.
     999900   -1    0    0    0    0 -0.00000000000E+00 -0.00000000000E+00 -0.74505805969E-08  0.93827000000E+00  0.93827000000E+00 0. -1.
     999902    2    1    2    0    0 -0.68989839862E-02  0.22663208753E-01  0.92047840664E-03  0.10202221049E+01  0.10199466059E+01 0.  0.
     999903    2    3    3    0    0  0.44372943461E-01 -0.80334519478E-01  0.87690980967E-01  0.12850103711E+00  0.20005380902E-01 0.  0.
         14    1    1    2    0    0  0.68989839862E-02 -0.22663208753E-01 -0.92047840664E-03  0.23707895131E-01  0.00000000000E+00 0.  1.
     999901    1    3    3    0    0 -0.51271927447E-01  0.10299772823E+00 -0.86770502561E-01  0.89172106776E+00  0.88000000000E+00 0. -1.
        -11    1    4    4    0    0  0.21388672192E-01 -0.36805572201E-01  0.54382260939E-01  0.69063860803E-01  0.51100000000E-03 0. -1.
         11    1    4    4    0    0  0.22984271269E-01 -0.43528947278E-01  0.33308720028E-01  0.59437176311E-01  0.51100000000E-03 0.  1.
</event>
<event>
 8    1  0.1166736E+005  0.1043930E+01  0.7957747E-01            NaN
         13   -1    0    0    0    0  0.00000000000E+00  0.00000000000E+00  0.74505805969E-08  0.10566000000E+00  0.10566000000E+00 0. -1.
     999900   -1    0    0    0    0 -0.00000000000E+00 -0.00000000000E+00 -0.74505805969E-08  0.93827000000E+00  0.93827000000E+00 0. -1.
     999902    2    1    2    0    0  0.23304652212E-01  0.30830893257E-02 -0.61813061565E-02  0.10196231944E+01  0.10193334281E+01 0.  0.
     999903    2    3    3    0    0  0.60680630795E-01 -0.52362426436E-01 -0.10245168702E+00  0.13185117677E+00  0.21550452081E-01 0.  0.
         14    1    1    2    0    0 -0.23304652212E-01 -0.30830893257E-02  0.61813061565E-02  0.24306805638E-01  0.00000000000E+00 0.  1.
     999901    1    3    3    0    0 -0.37375978584E-01  0.55445515761E-01  0.96270380867E-01  0.88777201760E+00  0.88000000000E+00 0.  1.
        -11    1    4    4    0    0  0.60765258215E-02  0.11560165712E-02 -0.49105925554E-02  0.79142643762E-02  0.51100000000E-03 0.  1.
         11    1    4    4    0    0  0.54604104974E-01 -0.53518443007E-01 -0.97541094468E-01  0.12393691239E+00  0.51100000000E-03 0. -1.
</event>
<event>
 8    1  0.1166736E+005  0.1043930E+01  0.7957747E-01            NaN
         13   -1    0    0    0    0  0.00000000000E+00  0.00000000000E+00  0.74505805969E-08  0.10566000000E+00  0.10566000000E+00 0. -1.
     999900   -1    0    0    0    0 -0.00000000000E+00 -0.00000000000E+00 -0.74505805969E-08  0.93827000000E+00  0.93827000000E+00 0. -1.
     999902    2    1    2    0    0 -0.13424026345E-01 -0.18720059239E-01  0.78543352153E-02  0.10195920526E+01  0.10193015344E+01 0.  0.
     999903    2    3    3    0    0  0.44548774350E-01 -0.42097083972E-01  0.11421805127E+00  0.13098608201E+00  0.18837002659E-01 0.  0.
         14    1    1    2    0    0  0.13424026345E-01  0.18720059239E-01 -0.78543352153E-02  0.24337947384E-01  0.00000000000E+00 0. -1.
     999901    1    3    3    0    0 -0.57972800695E-01  0.23377024733E-01 -0.10636371605E+00  0.88860597061E+00  0.88000000000E+00 0.  1.
        -11    1    4    4    0    0  0.31070208986E-01 -0.37022516723E-01  0.98123636481E-01  0.10938251135E+00  0.51100000000E-03 0. -1.
         11    1    4    4    0    0  0.13478565364E-01 -0.50745672493E-02  0.16094414788E-01  0.21603570663E-01  0.51100000000E-03 0.  1.
</event>
<event>
 8    1  0.1166736E+005  0.1043930E+01  0.7957747E-01            NaN
         13   -1    0    0    0    0  0.00000000000E+00  0.00000000000E+00  0.74505805969E-08  0.10566000000E+00  0.10566000000E+00 0.  1.
     999900   -1    0    0    0    0 -0.00000000000E+00 -0.00000000000E+00 -0.74505805969E-08  0.93827000000E+00  0.93827000000E+00 0. -1.
     999902    2    1    2    0    0  0.21372566418E-01  0.10281487708E-01 -0.42588949534E-02  0.10198336565E+01  0.10195489459E+01 0.  0.
     999903    2    3    3    0    0  0.70328152472E-01  0.23086058850E-01 -0.10784543883E+00  0.13231420401E+00  0.19934762632E-01 0.  0.
         14    1    1    2    0    0 -0.21372566418E-01 -0.10281487708E-01  0.42588949534E-02  0.24096343519E-01  0.00000000000E+00 0. -1.
     999901    1    3    3    0    0 -0.48955586054E-01 -0.12804571142E-01  0.10358654388E+00  0.88751945247E+00  0.88000000000E+00 0.  1.
        -11    1    4    4    0    0  0.50343875148E-01  0.99585989783E-02 -0.61006414534E-01  0.79722789677E-01  0.51100000000E-03 0.  1.
         11    1    4    4    0    0  0.19984277324E-01  0.13127459872E-01 -0.46839024299E-01  0.52591414329E-01  0.51100000000E-03 0. -1.
</event>
<event>
 8    1  0.1166736E+005  0.1043930E+01  0.7957747E-01            NaN
         13   -1    0    0    0    0  0.00000000000E+00  0.00000000000E+00  0.74505805969E-08  0.10566000000E+00  0.10566000000E+00 0. -1.
     999900   -1    0    0    0    0 -0.00000000000E+00 -0.00000000000E+00 -0.74505805969E-08  0.93827000000E+00  0.93827000000E+00 0.  1.
     999902    2    1    2    0    0  0.84927271990E-02  0.54766582148E-02 -0.24086861923E-01  0.10178091823E+01  0.10174739478E+01 0.  0.
     999903    2    3    3    0    0  0.95995061122E-01  0.84398206679E-01 -0.10534802519E-01  0.12985145381E+00  0.20305391949E-01 0.  0.
         14    1    1    2    0    0 -0.84927271990E-02 -0.54766582148E-02  0.24086861923E-01  0.26120817709E-01  0.00000000000E+00 0. -1.
     999901    1    3    3    0    0 -0.87502333923E-01 -0.78921548464E-01 -0.13552059404E-01  0.88795772848E+00  0.88000000000E+00 0.  1.
        -11    1    4    4    0    0  0.54020789541E-01  0.44696347040E-01  0.41413083814E-02  0.70238313600E-01  0.51100000000E-03 0. -1.
         11    1    4    4    0    0  0.41974271582E-01  0.39701859639E-01 -0.14676110900E-01  0.59613140210E-01  0.51100000000E-03 0.  1.
</event>
<event>
 8    1  0.1166736E+005  0.1043930E+01  0.7957747E-01            NaN
         13   -1    0    0    0    0  0.00000000000E+00  0.00000000000E+00  0.74505805969E-08  0.10566000000E+00  0.10566000000E+00 0.  1.
     999900   -1    0    0    0    0 -0.00000000000E+00 -0.00000000000E+00 -0.74505805969E-08  0.93827000000E+00  0.93827000000E+00 0. -1.
     999902    2    1    2    0    0  0.58306895424E-02 -0.26645381831E-02  0.23340121246E-01  0.10197254970E+01  0.10194381940E+01 0.  0.
     999903    2    3    3    0    0  0.95989435015E-01 -0.85307581971E-01 -0.12974542031E-01  0.13052516705E+00  0.19419714611E-01 0.  0.
         14    1    1    2    0    0 -0.58306895424E-02  0.26645381831E-02 -0.23340121246E-01  0.24204502971E-01  0.00000000000E+00 0. -1.
     999901    1    3    3    0    0 -0.90158745472E-01  0.82643043788E-01  0.36314663277E-01  0.88920032998E+00  0.88000000000E+00 0.  1.
        -11    1    4    4    0    0  0.32718775262E-01 -0.39591383916E-01 -0.10496813759E-01  0.52425567761E-01  0.51100000000E-03 0. -1.
         11    1    4    4    0    0  0.63270659753E-01 -0.45716198055E-01 -0.24777282711E-02  0.78099599286E-01  0.51100000000E-03 0.  1.
</event>
<event>
 8    1  0.1166736E+005  0.1043930E+01  0.7957747E-01            NaN
         13   -1    0    0    0    0  0.00000000000E+00  0.00000000000E+00  0.74505805969E-08  0.10566000000E+00  0.10566000000E+00 0. -1.
     999900   -1    0    0    0    0 -0.00000000000E+00 -0.00000000000E+00 -0.74505805969E-08  0.93827000000E+00  0.93827000000E+00 0.  1.
     999902    2    1    2    0    0 -0.20049199097E-01 -0.12548553303E-01  0.35595472187E-02  0.10200112427E+01  0.10197307626E+01 0.  0.
     999903    2    3    3    0    0  0.68816929244E-01 -0.21003134414E-01  0.10602507263E+00  0.12957996932E+00  0.19306760918E-01 0.  0.
         14    1    1    2    0    0  0.20049199097E-01  0.12548553303E-01 -0.35595472187E-02  0.23918757301E-01  0.00000000000E+00 0.  1.
     999901    1    3    3    0    0 -0.88866128341E-01  0.84545811114E-02 -0.10246552541E+00  0.89043127338E+00  0.88000000000E+00 0.  1.
        -11    1    4    4    0    0  0.55389502903E-01 -0.87498701383E-02  0.75493631981E-01  0.94043111656E-01  0.51100000000E-03 0.  1.
         11    1    4    4    0    0  0.13427426341E-01 -0.12253264276E-01  0.30531440651E-01  0.35536857666E-01  0.51100000000E-03 0. -1.
</event>
<event>
 8    1  0.1166736E+005  0.1043930E+01  0.7957747E-01            NaN
         13   -1    0    0    0    0  0.00000000000E+00  0.00000000000E+00  0.74505805969E-08  0.10566000000E+00  0.10566000000E+00 0.  1.
     999900   -1    0    0    0    0 -0.00000000000E+00 -0.00000000000E+00 -0.74505805969E-08  0.93827000000E+00  0.93827000000E+00 0. -1.
     999902    2    1    2    0    0  0.17179238561E-01  0.11741110951E-01 -0.11246646885E-01  0.10202769454E+01  0.10200027345E+01 0.  0.
     999903    2    3    3    0    0 -0.38855915916E-02  0.99239122047E-01 -0.85274886800E-01  0.13259467722E+00  0.21119681352E-01 0.  0.
         14    1    1    2    0    0 -0.17179238561E-01 -0.11741110951E-01  0.11246646885E-01  0.23653054561E-01  0.00000000000E+00 0.  1.
     999901    1    3    3    0    0  0.21064830153E-01 -0.87498011096E-01  0.74028239915E-01  0.88768226822E+00  0.88000000000E+00 0.  1.
        -11    1    4    4    0    0  0.83388881586E-02  0.54536773041E-01 -0.45155398124E-01  0.71295636403E-01  0.51100000000E-03 0.  1.
         11    1    4    4    0    0 -0.12224479750E-01  0.44702349006E-01 -0.40119488676E-01  0.61299040812E-01  0.51100000000E-03 0. -1.
</event>
<event>
 8    1  0.1166736E+005  0.1043930E+01  0.7957747E-01            NaN
         13   -1    0    0    0    0  0.00000000000E+00  0.00000000000E+00  0.74505805969E-08  0.10566000000E+00  0.10566000000E+00 0.  1.
     999900   -1    0    0    0    0 -0.00000000000E+00 -0.00000000000E+00 -0.74505805969E-08  0.93827000000E+00  0.93827000000E+00 0. -1.
     999902    2    1    2    0    0  0.48084175073E-02 -0.16253951540E-01  0.16841003079E-01  0.10200358333E+01  0.10197559365E+01 0.  0.
     999903    2    3    3    0    0 -0.10170426495E+00  0.50391568055E-01  0.60258388358E-01  0.13005176253E+00  0.19982991023E-01 0.  0.
         14    1    1    2    0    0 -0.48084175073E-02  0.16253951540E-01 -0.16841003079E-01  0.23894166742E-01  0.00000000000E+00 0. -1.
     999901    1    3    3    0    0  0.10651268245E+00 -0.66645519595E-01 -0.43417385279E-01  0.88998407073E+00  0.88000000000E+00 0. -1.
        -11    1    4    4    0    0 -0.13857531213E-01  0.13048232699E-01  0.15836531749E-01  0.24765791058E-01  0.51100000000E-03 0. -1.
         11    1    4    4    0    0 -0.87846733734E-01  0.37343335356E-01  0.44421856609E-01  0.10528597147E+00  0.51100000000E-03 0.  1.
</event>
<event>
 8    1  0.1166736E+005  0.1043930E+01  0.7957747E-01            NaN
         13   -1    0    0    0    0  0.00000000000E+00  0.00000000000E+00  0.74505805969E-08  0.10566000000E+00  0.10566000000E+00 0. -1.
     999900   -1    0    0    0    0 -0.00000000000E+00 -0.00000000000E+00 -0.74505805969E-08  0.93827000000E+00  0.93827000000E+00 0. -1.
     999902    2    1    2    0    0  0.23768409885E-01 -0.10740917762E-01  0.10428305782E-02  0.10178265114E+01  0.10174917273E+01 0.  0.
     999903    2    3    3    0    0  0.10529699605E+00  0.36253450936E-01 -0.65021468158E-01  0.13034700591E+00  0.18994224021E-01 0.  0.
         14    1    1    2    0    0 -0.23768409885E-01  0.10740917762E-01 -0.10428305782E-02  0.26103488626E-01  0.00000000000E+00 0.  1.
     999901    1    3    3    0    0 -0.81528586166E-01 -0.46994368698E-01  0.66064298736E-01  0.88747950546E+00  0.88000000000E+00 0.  1.
        -11    1    4    4    0    0  0.25595228458E-01  0.17684270954E-01 -0.18985644018E-01  0.36449485027E-01  0.51100000000E-03 0.  1.
         11    1    4    4    0    0  0.79701767593E-01  0.18569179982E-01 -0.46035824141E-01  0.93897520883E-01  0.51100000000E-03 0. -1.
</event>
<event>
 8    1  0.1166736E+005  0.1043930E+01  0.7957747E-01            NaN
         13   -1    0    0    0    0  0.00000000000E+00  0.00000000000E+00  0.74505805969E-08  0.10566000000E+00  0.10566000000E+00 0.  1.
     999900   -1    0    0    0    0 -0.00000000000E+00 -0.00000000000E+00 -0.74505805969E-08  0.93827000000E+00  0.93827000000E+00 0.  1.
     999902    2    1    2    0    0 -0.21424175730E-01  0.31043207372E-02  0.78784860578E-02  0.10208930155E+01  0.10206330616E+01 0.  0.
     999903    2    3    3    0    0 -0.60744853955E-02  0.10785275730E+00  0.75163566945E-01  0.13199756040E+00  0.10231203599E-01 0.  0.
         14    1    1    2    0    0  0.21424175730E-01 -0.31043207372E-02 -0.78784860578E-02  0.23036984514E-01  0.00000000000E+00 0. -1.
     999901    1    3    3    0    0 -0.15349690334E-01 -0.10474843656E+00 -0.67285080888E-01  0.88889545508E+00  0.88000000000E+00 0.  1.
        -11    1    4    4    0    0  0.18104290179E-02  0.46211348533E-01  0.29119812113E-01  0.54653371030E-01  0.51100000000E-03 0. -1.
         11    1    4    4    0    0 -0.78849144135E-02  0.61641408765E-01  0.46043754833E-01  0.77344189374E-01  0.51100000000E-03 0.  1.
</event>
<event>
 8    1  0.1166736E+005  0.1043930E+01  0.7957747E-01            NaN
         13   -1    0    0    0    0  0.00000000000E+00  0.00000000000E+00  0.74505805969E-08  0.10566000000E+00  0.10566000000E+00 0.  1.
     999900   -1    0    0    0    0 -0.00000000000E+00 -0.00000000000E+00 -0.74505805969E-08  0.93827000000E+00  0.93827000000E+00 0.  1.
     999902    2    1    2    0    0  0.84700990068E-04 -0.21325140323E-01  0.11106318126E-01  0.10198858929E+01  0.10196024301E+01 0.  0.
     999903    2    3    3    0    0 -0.37388931540E-01  0.65338145946E-01  0.10406676093E+00  0.12996654697E+00  0.19859684898E-01 0.  0.
         14    1    1    2    0    0 -0.84700990068E-04  0.21325140323E-01 -0.11106318126E-01  0.24044107103E-01  0.00000000000E+00 0.  1.
     999901    1    3    3    0    0  0.37473632530E-01 -0.86663286270E-01 -0.92960442805E-01  0.88991934592E+00  0.88000000000E+00 0.  1.
        -11    1    4    4    0    0 -0.45943800344E-02  0.85806539916E-02  0.27475060966E-01  0.29152633619E-01  0.51100000000E-03 0. -1.
         11    1    4    4    0    0 -0.32794551506E-01  0.56757491955E-01  0.76591699964E-01  0.10081391335E+00  0.51100000000E-03 0.  1.
</event>
<event>
 8    1  0.1166736E+005  0.1043930E+01  0.7957747E-01            NaN
         13   -1    0    0    0    0  0.00000000000E+00  0.00000000000E+00  0.74505805969E-08  0.10566000000E+00  0.10566000000E+00 0. -1.
     999900   -1    0    0    0    0 -0.00000000000E+00 -0.00000000000E+00 -0.74505805969E-08  0.93827000000E+00  0.93827000000E+00 0.  1.
     999902    2    1    2    0    0  0.20827404851E-01 -0.71163166130E-02  0.81638579986E-02  0.10204550914E+01  0.10201850432E+01 0.  0.
     999903    2    3    3    0    0 -0.14596734944E-01 -0.12604720184E+00 -0.26671971609E-01  0.13106599763E+00  0.19129555757E-01 0.  0.
         14    1    1    2    0    0 -0.20827404851E-01  0.71163166130E-02 -0.81638579986E-02  0.23474908570E-01  0.00000000000E+00 0.  1.
     999901    1    3    3    0    0  0.35424139794E-01  0.11893088523E+00  0.34835829608E-01  0.88938909380E+00  0.88000000000E+00 0.  1.
        -11    1    4    4    0    0 -0.14809675673E-01 -0.12527713628E+00 -0.24243530947E-01  0.12845893228E+00  0.51100000000E-03 0. -1.
         11    1    4    4    0    0  0.21294072982E-03 -0.77006555995E-03 -0.24284406624E-02  0.26070653562E-02  0.51100000000E-03 0.  1.
</event>
<event>
 8    1  0.1166736E+005  0.1043930E+01  0.7957747E-01            NaN
         13   -1    0    0    0    0  0.00000000000E+00  0.00000000000E+00  0.74505805969E-08  0.10566000000E+00  0.10566000000E+00 0. -1.
     999900   -1    0    0    0    0 -0.00000000000E+00 -0.00000000000E+00 -0.74505805969E-08  0.93827000000E+00  0.93827000000E+00 0. -1.
     999902    2    1    2    0    0  0.81439791849E-02  0.15534659329E-01  0.15926374382E-01  0.10202382411E+01  0.10199631215E+01 0.  0.
     999903    2    3    3    0    0  0.55214312262E-01  0.10997343419E+00  0.47596839842E-01  0.13336885005E+00  0.19468294591E-01 0.  0.
         14    1    1    2    0    0 -0.81439791849E-02 -0.15534659329E-01 -0.15926374382E-01  0.23691758871E-01  0.00000000000E+00 0.  1.
     999901    1    3    3    0    0 -0.47070333077E-01 -0.94438774861E-01 -0.31670465460E-01  0.88686939108E+00  0.88000000000E+00 0.  1.
        -11    1    4    4    0    0  0.83183366794E-02  0.56920160828E-02  0.57127142874E-02  0.11596982268E-01  0.51100000000E-03 0. -1.
         11    1    4    4    0    0  0.46895975582E-01  0.10428141811E+00  0.41884125555E-01  0.12177186778E+00  0.51100000000E-03 0.  1.
</event>
<event>
 8    1  0.1166736E+005  0.1043930E+01  0.7957747E-01            NaN
         13   -1    0    0    0    0  0.00000000000E+00  0.00000000000E+00  0.74505805969E-08  0.10566000000E+00  0.10566000000E+00 0.  1.
     999900   -1    0    0    0    0 -0.00000000000E+00 -0.00000000000E+00 -0.74505805969E-08  0.93827000000E+00  0.93827000000E+00 0.  1.
     999902    2    1    2    0    0 -0.67705621602E-02  0.16754616151E-01 -0.15950298647E-01  0.10198266869E+01  0.10195418097E+01 0.  0.
     999903    2    3    3    0    0 -0.11244145434E+00 -0.53028648053E-01  0.31393463892E-01  0.12950232285E+00  0.18170962526E-01 0.  0.
         14    1    1    2    0    0  0.67705621602E-02 -0.16754616151E-01  0.15950298647E-01  0.24103313076E-01  0.00000000000E+00 0.  1.
     999901    1    3    3    0    0  0.10567089218E+00  0.69783264204E-01 -0.47343762538E-01  0.89032436408E+00  0.88000000000E+00 0.  1.
        -11    1    4    4    0    0 -0.49491342235E-01 -0.23550216405E-01  0.45958023959E-02  0.55003528701E-01  0.51100000000E-03 0. -1.
         11    1    4    4    0    0 -0.62950112105E-01 -0.29478431649E-01  0.26797661496E-01  0.74498794146E-01  0.51100000000E-03 0.  1.
</event>
<event>
 8    1  0.1166736E+005  0.1043930E+01  0.7957747E-01            NaN
         13   -1    0    0    0    0  0.00000000000E+00  0.00000000000E+00  0.74505805969E-08  0.10566000000E+00  0.10566000000E+00 0. -1.
     999900   -1    0    0    0    0 -0.00000000000E+00 -0.00000000000E+00 -0.74505805969E-08  0.93827000000E+00  0.93827000000E+00 0. -1.
     999902    2    1    2    0    0 -0.78667609565E-02 -0.21615207569E-01  0.62938644138E-02  0.10200822358E+01  0.10198034379E+01 0.  0.
     999903    2    3    3    0    0  0.75505737434E-01  0.97409776564E-01 -0.26004521450E-01  0.12757951536E+00  0.20261210420E-01 0.  0.
         14    1    1    2    0    0  0.78667609565E-02  0.21615207569E-01 -0.62938644138E-02  0.23847764160E-01  0.00000000000E+00 0.  1.
     999901    1    3    3    0    0 -0.83372498391E-01 -0.11902498413E+00  0.32298385864E-01  0.89250272048E+00  0.88000000000E+00 0.  1.
        -11    1    4    4    0    0  0.64037941290E-01  0.68515275010E-01 -0.18405680165E-01  0.95573171014E-01  0.51100000000E-03 0.  1.
         11    1    4    4    0    0  0.11467796144E-01  0.28894501554E-01 -0.75988412853E-02  0.32006344345E-01  0.51100000000E-03 0. -1.
</event>
<event>
 8    1  0.1166736E+005  0.1043930E+01  0.7957747E-01            NaN
         13   -1    0    0    0    0  0.00000000000E+00  0.00000000000E+00  0.74505805969E-08  0.10566000000E+00  0.10566000000E+00 0. -1.
     999900   -1    0    0    0    0 -0.00000000000E+00 -0.00000000000E+00 -0.74505805969E-08  0.93827000000E+00  0.93827000000E+00 0. -1.
     999902    2    1    2    0    0  0.10287210430E-01 -0.14398785585E-01 -0.16784082090E-01  0.10195403068E+01  0.10192485369E+01 0.  0.
     999903    2    3    3    0    0 -0.72774081844E-01  0.77599170533E-02  0.10239530214E+00  0.12735539767E+00  0.19450349971E-01 0.  0.
         14    1    1    2    0    0 -0.10287210430E-01  0.14398785585E-01  0.16784082090E-01  0.24389693240E-01  0.00000000000E+00 0. -1.
     999901    1    3    3    0    0  0.83061292274E-01 -0.22158702639E-01 -0.11917938423E+00  0.89218490909E+00  0.88000000000E+00 0. -1.
        -11    1    4    4    0    0 -0.43904329930E-01  0.11839399635E-01  0.51553510816E-01  0.68744360996E-01  0.51100000000E-03 0. -1.
         11    1    4    4    0    0 -0.28869751915E-01 -0.40794825818E-02  0.50841791329E-01  0.58611036676E-01  0.51100000000E-03 0.  1.
</event>
<event>
 8    1  0.1166736E+005  0.1043930E+01  0.7957747E-01            NaN
         13   -1    0    0    0    0  0.00000000000E+00  0.00000000000E+00  0.74505805969E-08  0.10566000000E+00  0.10566000000E+00 0. -1.
     999900   -1    0    0    0    0 -0.00000000000E+00 -0.00000000000E+00 -0.74505805969E-08  0.93827000000E+00  0.93827000000E+00 0.  1.
     999902    2    1    2    0    0 -0.78663112267E-02 -0.93195026085E-02  0.20952281789E-01  0.10196868547E+01  0.10193986225E+01 0.  0.
     999903    2    3    3    0    0 -0.84154879799E-01  0.83574727140E-01  0.52844859443E-01  0.13094256071E+00  0.16929153119E-01 0.  0.
         14    1    1    2    0    0  0.78663112267E-02  0.93195026085E-02 -0.20952281789E-01  0.24243145286E-01  0.00000000000E+00 0.  1.
     999901    1    3    3    0    0  0.76288568572E-01 -0.92894229748E-01 -0.31892577654E-01  0.88874429400E+00  0.88000000000E+00 0.  1.
        -11    1    4    4    0    0 -0.38716388965E-01  0.50221370460E-01  0.29254130020E-01  0.69837025063E-01  0.51100000000E-03 0.  1.
         11    1    4    4    0    0 -0.45438490834E-01  0.33353356680E-01  0.23590729423E-01  0.61105535648E-01  0.51100000000E-03 0. -1.
</event>
<event>
 8    1  0.1166736E+005  0.1043930E+01  0.7957747E-01            NaN
         13   -1    0    0    0    0  0.00000000000E+00  0.00000000000E+00  0.74505805969E-08  0.10566000000E+00  0.10566000000E+00 0. -1.
     999900   -1    0    0    0    0 -0.00000000000E+00 -0.00000000000E+00 -0.74505805969E-08  0.93827000000E+00  0.93827000000E+00 0.  1.
     999902    2    1    2    0    0 -0.66515899137E-02  0.10647653042E-01 -0.20275231890E-01  0.10200825433E+01  0.10198037526E+01 0.  0.
     999903    2    3    3    0    0 -0.88286519557E-02 -0.10099891778E+00 -0.80317867857E-01  0.13099603764E+00  0.20743083031E-01 0.  0.
         14    1    1    2    0    0  0.66515899137E-02 -0.10647653042E-01  0.20275231890E-01  0.23847456717E-01  0.00000000000E+00 0. -1.
     999901    1    3    3    0    0  0.21770620420E-02  0.11164657082E+00  0.60042635967E-01  0.88908650564E+00  0.88000000000E+00 0. -1.
        -11    1    4    4    0    0  0.39439355810E-02 -0.47636034527E-01 -0.45596279879E-01  0.66060792253E-01  0.51100000000E-03 0. -1.
         11    1    4    4    0    0 -0.12772587537E-01 -0.53362883251E-01 -0.34721587979E-01  0.64935245391E-01  0.51100000000E-03 0.  1.
</event>
<event>
 8    1  0.1166736E+005  0.1043930E+01  0.7957747E-01            NaN
         13   -1    0    0    0    0  0.00000000000E+00  0.00000000000E+00  0.74505805969E-08  0.10566000000E+00  0.10566000000E+00 0.  1.
     999900   -1    0    0    0    0 -0.00000000000E+00 -0.00000000000E+00 -0.74505805969E-08  0.93827000000E+00  0.93827000000E+00 0.  1.
     999902    2    1    2    0    0 -0.35404191906E-02 -0.84223330757E-02 -0.22569274304E-01  0.10195816447E+01  0.10192908750E+01 0.  0.
     999903    2    3    3    0    0  0.17926036430E-02 -0.63755916338E-01  0.10930036208E+00  0.12802130039E+00  0.19361144282E-01 0.  0.
         14    1    1    2    0    0  0.35404191906E-02  0.84223330757E-02  0.22569274304E-01  0.24348355285E-01  0.00000000000E+00 0.  1.
     999901    1    3    3    0    0 -0.53330228337E-02  0.55333583262E-01 -0.13186963638E+00  0.89156034432E+00  0.88000000000E+00 0.  1.
        -11    1    4    4    0    0  0.20671456420E-02 -0.51564381293E-01  0.70666274321E-01  0.87505096747E-01  0.51100000000E-03 0. -1.
         11    1    4    4    0    0 -0.27454199892E-03 -0.12191535045E-01  0.38634087757E-01  0.40516203646E-01  0.51100000000E-03 0.  1.
</event>
<event>
 8    1  0.1166736E+005  0.1043930E+01  0.7957747E-01            NaN
         13   -1    0    0    0    0  0.00000000000E+00  0.00000000000E+00  0.74505805969E-08  0.10566000000E+00  0.10566000000E+00 0. -1.
     999900   -1    0    0    0    0 -0.00000000000E+00 -0.00000000000E+00 -0.74505805969E-08  0.93827000000E+00  0.93827000000E+00 0.  1.
     999902    2    1    2    0    0 -0.71783703886E-02  0.17952659346E-01  0.12846744677E-01  0.10207165162E+01  0.10204525176E+01 0.  0.
     999903    2    3    3    0    0  0.49537686404E-01 -0.11636837038E+00  0.12696113779E-01  0.12871939024E+00  0.20295568943E-01 0.  0.
         14    1    1    2    0    0  0.71783703886E-02 -0.17952659346E-01 -0.12846744677E-01  0.23213483750E-01  0.00000000000E+00 0.  1.
     999901    1    3    3    0    0 -0.56716056793E-01  0.13432102973E+00  0.15063089831E-03  0.89199712601E+00  0.88000000000E+00 0.  1.
        -11    1    4    4    0    0  0.17024726769E-01 -0.34303112887E-01 -0.52018199970E-02  0.38650548865E-01  0.51100000000E-03 0. -1.
         11    1    4    4    0    0  0.32512959635E-01 -0.82065257493E-01  0.17897933776E-01  0.90068841372E-01  0.51100000000E-03 0.  1.
</event>
<event>
 8    1  0.1166736E+005  0.1043930E+01  0.7957747E-01            NaN
         13   -1    0    0    0    0  0.00000000000E+00  0.00000000000E+00  0.74505805969E-08  0.10566000000E+00  0.10566000000E+00 0.  1.
     999900   -1    0    0    0    0 -0.00000000000E+00 -0.00000000000E+00 -0.74505805969E-08  0.93827000000E+00  0.93827000000E+00 0. -1.
     999902    2    1    2    0    0  0.99289702281E-02  0.17310819681E-02  0.20868787973E-01  0.10207548537E+01  0.10204917363E+01 0.  0.
     999903    2    3    3    0    0 -0.98275278035E-01  0.62527526113E-01 -0.51261920838E-01  0.12912308771E+00  0.21846406065E-01 0.  0.
         14    1    1    2    0    0 -0.99289702281E-02 -0.17310819681E-02 -0.20868787973E-01  0.23175146300E-01  0.00000000000E+00 0. -1.
     999901    1    3    3    0    0  0.10820424826E+00 -0.60796444145E-01  0.72130708811E-01  0.89163176599E+00  0.88000000000E+00 0.  1.
        -11    1    4    4    0    0 -0.35031157037E-01  0.27666504466E-01 -0.93016665472E-02  0.45600433708E-01  0.51100000000E-03 0.  1.
         11    1    4    4    0    0 -0.63244120998E-01  0.34861021647E-01 -0.41960254291E-01  0.83522654006E-01  0.51100000000E-03 0. -1.
</event>
<event>
 8    1  0.1166736E+005  0.1043930E+01  0.7957747E-01            NaN
         13   -1    0    0    0    0  0.00000000000E+00  0.00000000000E+00  0.74505805969E-08  0.10566000000E+00  0.10566000000E+00 0.  1.
     999900   -1    0    0    0    0 -0.00000000000E+00 -0.00000000000E+00 -0.74505805969E-08  0.93827000000E+00  0.93827000000E+00 0. -1.
     999902    2    1    2    0    0  0.22065653926E-01  0.69133610711E-02  0.91516362218E-02  0.10190615443E+01  0.10187580630E+01 0.  0.
     999903    2    3    3    0    0 -0.53266658768E-01 -0.11418778901E+00 -0.83283966877E-03  0.12752347126E+00  0.19630435635E-01 0.  0.
         14    1    1    2    0    0 -0.22065653926E-01 -0.69133610711E-02 -0.91516362218E-02  0.24868455722E-01  0.00000000000E+00 0.  1.
     999901    1    3    3    0    0  0.75332312693E-01  0.12110115009E+00  0.99844758906E-02  0.89153807302E+00  0.88000000000E+00 0.  1.
        -11    1    4    4    0    0 -0.40240833516E-01 -0.97072300407E-01  0.50949247401E-02  0.10520729807E+00  0.51100000000E-03 0.  1.
         11    1    4    4    0    0 -0.13025825252E-01 -0.17115488607E-01 -0.59277644089E-02  0.22316173185E-01  0.51100000000E-03 0. -1.
</event>
<event>
 8    1  0.1166736E+005  0.1043930E+01  0.7957747E-01            NaN
         13   -1    0    0    0    0  0.00000000000E+00  0.00000000000E+00  0.74505805969E-08  0.10566000000E+00  0.10566000000E+00 0.  1.
     999900   -1    0    0    0    0 -0.00000000000E+00 -0.00000000000E+00 -0.74505805969E-08  0.93827000000E+00  0.93827000000E+00 0. -1.
     999902    2    1    2    0    0  0.21718037884E-01  0.26107791966E-02 -0.25598170452E-02  0.10219063309E+01  0.10216689812E+01 0.  0.
     999903    2    3    3    0    0  0.13209034118E+00  0.10315954920E-01  0.14972327323E-01  0.13480498880E+00  0.19847852796E-01 0.  0.
         14    1    1    2    0    0 -0.21718037884E-01 -0.26107791966E-02  0.25598170452E-02  0.22023669105E-01  0.00000000000E+00 0.  1.
     999901    1    3    3    0    0 -0.11037230329E+00 -0.77051757231E-02 -0.17532144369E-01  0.88710134210E+00  0.88000000000E+00 0.  1.
        -11    1    4    4    0    0  0.57505720053E-01  0.76134401213E-02 -0.28198034797E-02  0.58078263765E-01  0.51100000000E-03 0.  1.
         11    1    4    4    0    0  0.74584621125E-01  0.27025147984E-02  0.17792130803E-01  0.76726725032E-01  0.51100000000E-03 0. -1.
</event>
<event>
 8    1  0.1166736E+005  0.1043930E+01  0.7957747E-01            NaN
         13   -1    0    0    0    0  0.00000000000E+00  0.00000000000E+00  0.74505805969E-08  0.10566000000E+00  0.10566000000E+00 0. -1.
     999900   -1    0    0    0    0 -0.00000000000E+00 -0.00000000000E+00 -0.74505805969E-08  0.93827000000E+00  0.93827000000E+00 0. -1.
     999902    2    1    2    0    0 -0.58026797006E-02  0.14038648451E-01  0.17226018629E-01  0.10209628395E+01  0.10207044769E+01 0.  0.
     999903    2    3    3    0    0 -0.53751081241E-01 -0.99579006823E-01 -0.57020847847E-01  0.12926747789E+00  0.25564553897E-01 0.  0.
         14    1    1    2    0    0  0.58026797006E-02 -0.14038648451E-01 -0.17226018629E-01  0.22967160465E-01  0.00000000000E+00 0.  1.
     999901    1    3    3    0    0  0.47948401540E-01  0.11361765527E+00  0.74246866477E-01  0.89169536165E+00  0.88000000000E+00 0. -1.
        -11    1    4    4    0    0 -0.27325468858E-01 -0.44385730213E-01 -0.12534839605E-01  0.53611170662E-01  0.51100000000E-03 0.  1.
         11    1    4    4    0    0 -0.26425612383E-01 -0.55193276610E-01 -0.44486008242E-01  0.75656307226E-01  0.51100000000E-03 0. -1.
</event>
<event>
 8    1  0.1166736E+005  0.1043930E+01  0.7957747E-01            NaN
         13   -1    0    0    0    0  0.00000000000E+00  0.00000000000E+00  0.74505805969E-08  0.10566000000E+00  0.10566000000E+00 0.  1.
     999900   -1    0    0    0    0 -0.00000000000E+00 -0.00000000000E+00 -0.74505805969E-08  0.93827000000E+00  0.93827000000E+00 0. -1.
     999902    2    1    2    0    0  0.10604537255E-01  0.19798422521E-01  0.34646839129E-02  0.10212047326E+01  0.10209518441E+01 0.  0.
     999903    2    3    3    0    0  0.29193259831E-01  0.10621575201E+00 -0.72578932593E-01  0.13351327320E+00  0.20592723692E-01 0.  0.
         14    1    1    2    0    0 -0.10604537255E-01 -0.19798422521E-01 -0.34646839129E-02  0.22725267420E-01  0.00000000000E+00 0. -1.
     999901    1    3    3    0    0 -0.18588722575E-01 -0.86417329493E-01  0.76043616506E-01  0.88769145938E+00  0.88000000000E+00 0. -1.
        -11    1    4    4    0    0  0.11498109101E-01  0.77045888651E-01 -0.48802930707E-01  0.91925310103E-01  0.51100000000E-03 0. -1.
         11    1    4    4    0    0  0.17695150730E-01  0.29169863362E-01 -0.23776001886E-01  0.41587963098E-01  0.51100000000E-03 0.  1.
</event>
<event>
 8    1  0.1166736E+005  0.1043930E+01  0.7957747E-01            NaN
         13   -1    0    0    0    0  0.00000000000E+00  0.00000000000E+00  0.74505805969E-08  0.10566000000E+00  0.10566000000E+00 0. -1.
     999900   -1    0    0    0    0 -0.00000000000E+00 -0.00000000000E+00 -0.74505805969E-08  0.93827000000E+00  0.93827000000E+00 0.  1.
     999902    2    1    2    0    0 -0.16089894069E-01  0.14560509868E-01 -0.11149606660E-01  0.10195331382E+01  0.10192411947E+01 0.  0.
     999903    2    3    3    0    0  0.95524932142E-01  0.83967304440E-01 -0.16154136067E-01  0.12975776321E+00  0.20014997505E-01 0.  0.
         14    1    1    2    0    0  0.16089894069E-01 -0.14560509868E-01  0.11149606660E-01  0.24396861835E-01  0.00000000000E+00 0. -1.
     999901    1    3    3    0    0 -0.11161482621E+00 -0.69406794573E-01  0.50045294070E-02  0.88977537496E+00  0.88000000000E+00 0. -1.
        -11    1    4    4    0    0  0.89483829901E-01  0.71444692064E-01 -0.17259499794E-01  0.11580091231E+00  0.51100000000E-03 0. -1.
         11    1    4    4    0    0  0.60411022412E-02  0.12522612377E-01  0.11053637268E-02  0.13956850898E-01  0.51100000000E-03 0.  1.
</event>
<event>
 8    1  0.1166736E+005  0.1043930E+01  0.7957747E-01            NaN
         13   -1    0    0    0    0  0.00000000000E+00  0.00000000000E+00  0.74505805969E-08  0.10566000000E+00  0.10566000000E+00 0. -1.
     999900   -1    0    0    0    0 -0.00000000000E+00 -0.00000000000E+00 -0.74505805969E-08  0.93827000000E+00  0.93827000000E+00 0. -1.
     999902    2    1    2    0    0  0.33636149464E-02  0.34109943807E-01  0.49042677074E-02  0.10093055287E+01  0.10087114534E+01 0.  0.
     999903    2    3    3    0    0  0.73889174730E-01 -0.62224913508E-01  0.66697389388E-01  0.11909619982E+00  0.20095100314E-01 0.  0.
         14    1    1    2    0    0 -0.33636149464E-02 -0.34109943807E-01 -0.49042677074E-02  0.34624471314E-01  0.00000000000E+00 0. -1.
     999901    1    3    3    0    0 -0.70525559784E-01  0.96334857315E-01 -0.61793121680E-01  0.89020932887E+00  0.88000000000E+00 0.  1.
        -11    1    4    4    0    0  0.48973899933E-01 -0.36068784371E-01  0.52256226451E-01  0.80189615316E-01  0.51100000000E-03 0. -1.
         11    1    4    4    0    0  0.24915274797E-01 -0.26156129138E-01  0.14441162937E-01  0.38906584502E-01  0.51100000000E-03 0.  1.
</event>
<event>
 8    1  0.1166736E+005  0.1043930E+01  0.7957747E-01            NaN
         13   -1    0    0    0    0  0.00000000000E+00  0.00000000000E+00  0.74505805969E-08  0.10566000000E+00  0.10566000000E+00 0.  1.
     999900   -1    0    0    0    0 -0.00000000000E+00 -0.00000000000E+00 -0.74505805969E-08  0.93827000000E+00  0.93827000000E+00 0. -1.
     999902    2    1    2    0    0  0.68775974947E-02  0.45479153757E-02 -0.22098155968E-01  0.10203437036E+01  0.10200710564E+01 0.  0.
     999903    2    3    3    0    0 -0.54750401815E-01  0.38320287033E-01  0.10730246322E+00  0.12810881095E+00  0.20784559945E-01 0.  0.
         14    1    1    2    0    0 -0.68775974947E-02 -0.45479153757E-02  0.22098155968E-01  0.23586296419E-01  0.00000000000E+00 0.  1.
     999901    1    3    3    0    0  0.61627999310E-01 -0.33772371658E-01 -0.12940061919E+00  0.89223489263E+00  0.88000000000E+00 0. -1.
        -11    1    4    4    0    0 -0.17627077184E-01  0.21106581012E-01  0.30398225234E-01  0.40994082871E-01  0.51100000000E-03 0.  1.
         11    1    4    4    0    0 -0.37123324631E-01  0.17213706021E-01  0.76904237986E-01  0.87114728077E-01  0.51100000000E-03 0. -1.
</event>
<event>
 8    1  0.1166736E+005  0.1043930E+01  0.7957747E-01            NaN
         13   -1    0    0    0    0  0.00000000000E+00  0.00000000000E+00  0.74505805969E-08  0.10566000000E+00  0.10566000000E+00 0. -1.
     999900   -1    0    0    0    0 -0.00000000000E+00 -0.00000000000E+00 -0.74505805969E-08  0.93827000000E+00  0.93827000000E+00 0. -1.
     999902    2    1    2    0    0 -0.25763484626E-01  0.22635908249E-02  0.11528938849E-02  0.10180415827E+01  0.10177123631E+01 0.  0.
     999903    2    3    3    0    0  0.11994574318E+00 -0.31980284199E-01 -0.47785737202E-02  0.12538319100E+00  0.16982047425E-01 0.  0.
         14    1    1    2    0    0  0.25763484626E-01 -0.22635908249E-02 -0.11528938849E-02  0.25888417252E-01  0.00000000000E+00 0.  1.
     999901    1    3    3    0    0 -0.14570922781E+00  0.34243875024E-01  0.59314676051E-02  0.89265839174E+00  0.88000000000E+00 0. -1.
        -11    1    4    4    0    0  0.76095431502E-01 -0.17001330046E-01 -0.10552232386E-01  0.78683992324E-01  0.51100000000E-03 0.  1.
         11    1    4    4    0    0  0.43850311679E-01 -0.14978954154E-01  0.57736586656E-02  0.46699198679E-01  0.51100000000E-03 0. -1.
</event>
<event>
 8    1  0.1166736E+005  0.1043930E+01  0.7957747E-01            NaN
         13   -1    0    0    0    0  0.00000000000E+00  0.00000000000E+00  0.74505805969E-08  0.10566000000E+00  0.10566000000E+00 0. -1.
     999900   -1    0    0    0    0 -0.00000000000E+00 -0.00000000000E+00 -0.74505805969E-08  0.93827000000E+00  0.93827000000E+00 0. -1.
     999902    2    1    2    0    0 -0.22283840953E-01 -0.14873659038E-01  0.25436056915E-02  0.10170178237E+01  0.10166616884E+01 0.  0.
     999903    2    3    3    0    0 -0.19212972124E-01 -0.12146706205E+00  0.37764071520E-01  0.12988081910E+00  0.17875027594E-01 0.  0.
         14    1    1    2    0    0  0.22283840953E-01  0.14873659038E-01 -0.25436056915E-02  0.26912176254E-01  0.00000000000E+00 0.  1.
     999901    1    3    3    0    0 -0.30708688292E-02  0.10659340301E+00 -0.35220465828E-01  0.88713700465E+00  0.88000000000E+00 0. -1.
        -11    1    4    4    0    0 -0.29628959546E-02 -0.34515708152E-01  0.27864739252E-02  0.34758285625E-01  0.51100000000E-03 0.  1.
         11    1    4    4    0    0 -0.16250076169E-01 -0.86951353897E-01  0.34977597594E-01  0.95122533474E-01  0.51100000000E-03 0. -1.
</event>
<event>
 8    1  0.1166736E+005  0.1043930E+01  0.7957747E-01            NaN
         13   -1    0    0    0    0  0.00000000000E+00  0.00000000000E+00  0.74505805969E-08  0.10566000000E+00  0.10566000000E+00 0. -1.
     999900   -1    0    0    0    0 -0.00000000000E+00 -0.00000000000E+00 -0.74505805969E-08  0.93827000000E+00  0.93827000000E+00 0.  1.
     999902    2    1    2    0    0  0.19152406971E-01  0.14258993080E-01 -0.24991310242E-02  0.10199221006E+01  0.10196395011E+01 0.  0.
     999903    2    3    3    0    0 -0.10795681040E+00 -0.58029922027E-01 -0.28948747800E-01  0.12746368556E+00  0.19667647932E-01 0.  0.
         14    1    1    2    0    0 -0.19152406971E-01 -0.14258993080E-01  0.24991310242E-02  0.24007899373E-01  0.00000000000E+00 0. -1.
     999901    1    3    3    0    0  0.12710921738E+00  0.72288915107E-01  0.26449616776E-01  0.89245841506E+00  0.88000000000E+00 0. -1.
        -11    1    4    4    0    0 -0.87115898415E-01 -0.48543544330E-01 -0.15566696638E-01  0.10093680507E+00  0.51100000000E-03 0. -1.
         11    1    4    4    0    0 -0.20840911990E-01 -0.94863776978E-02 -0.13382051162E-01  0.26526880494E-01  0.51100000000E-03 0.  1.
</event>
<event>
 8    1  0.1166736E+005  0.1043930E+01  0.7957747E-01            NaN
         13   -1    0    0    0    0  0.00000000000E+00  0.00000000000E+00  0.74505805969E-08  0.10566000000E+00  0.10566000000E+00 0.  1.
     999900   -1    0    0    0    0 -0.00000000000E+00 -0.00000000000E+00 -0.74505805969E-08  0.93827000000E+00  0.93827000000E+00 0. -1.
     999902    2    1    2    0    0  0.15584494640E-01  0.13795801371E-01 -0.11186324598E-01  0.10203008979E+01  0.10200272485E+01 0.  0.
     999903    2    3    3    0    0 -0.10928507492E+00 -0.22853493628E-01  0.59416795991E-01  0.12793304724E+00  0.19261338463E-01 0.  0.
         14    1    1    2    0    0 -0.15584494640E-01 -0.13795801371E-01  0.11186324598E-01  0.23629102113E-01  0.00000000000E+00 0.  1.
     999901    1    3    3    0    0  0.12486956956E+00  0.36649294999E-01 -0.70603120590E-01  0.89236785064E+00  0.88000000000E+00 0.  1.
        -11    1    4    4    0    0 -0.74906047189E-01 -0.22518520222E-01  0.47653277948E-01  0.91592006631E-01  0.51100000000E-03 0. -1.
         11    1    4    4    0    0 -0.34379027732E-01 -0.33497340595E-03  0.11763518043E-01  0.36341040612E-01  0.51100000000E-03 0.  1.
</event>
<event>
 8    1  0.1166736E+005  0.1043930E+01  0.7957747E-01            NaN
         13   -1    0    0    0    0  0.00000000000E+00  0.00000000000E+00  0.74505805969E-08  0.10566000000E+00  0.10566000000E+00 0.  1.
     999900   -1    0    0    0    0 -0.00000000000E+00 -0.00000000000E+00 -0.74505805969E-08  0.93827000000E+00  0.93827000000E+00 0.  1.
     999902    2    1    2    0    0  0.13992857043E-01  0.11525584987E-01 -0.16193294189E-01  0.10196223482E+01  0.10193325616E+01 0.  0.
     999903    2    3    3    0    0 -0.15841319516E-01 -0.68405368268E-01  0.10477768078E+00  0.12725862634E+00  0.16916080403E-01 0.  0.
         14    1    1    2    0    0 -0.13992857043E-01 -0.11525584987E-01  0.16193294189E-01  0.24307651762E-01  0.00000000000E+00 0.  1.
     999901    1    3    3    0    0  0.29834176559E-01  0.79930953255E-01 -0.12097097497E+00  0.89236372190E+00  0.88000000000E+00 0.  1.
        -11    1    4    4    0    0 -0.46119930596E-02 -0.18304546331E-01  0.16225816396E-01  0.24897090896E-01  0.51100000000E-03 0.  1.
         11    1    4    4    0    0 -0.11229326457E-01 -0.50100821937E-01  0.88551864382E-01  0.10236153544E+00  0.51100000000E-03 0. -1.
</event>
<event>
 8    1  0.1166736E+005  0.1043930E+01  0.7957747E-01            NaN
         13   -1    0    0    0    0  0.00000000000E+00  0.00000000000E+00  0.74505805969E-08  0.10566000000E+00  0.10566000000E+00 0. -1.
     999900   -1    0    0    0    0 -0.00000000000E+00 -0.00000000000E+00 -0.74505805969E-08  0.93827000000E+00  0.93827000000E+00 0. -1.
     999902    2    1    2    0    0  0.10840653406E-01  0.17895888667E-01  0.77351902379E-02  0.10216226970E+01  0.10213791262E+01 0.  0.
     999903    2    3    3    0    0 -0.70749971678E-03  0.12542660685E+00  0.43433360598E-01  0.13428365554E+00  0.20330004208E-01 0.  0.
         14    1    1    2    0    0 -0.10840653406E-01 -0.17895888667E-01 -0.77351902379E-02  0.22307302962E-01  0.00000000000E+00 0.  1.
     999901    1    3    3    0    0  0.11548153123E-01 -0.10753071818E+00 -0.35698170360E-01  0.88733904149E+00  0.88000000000E+00 0. -1.
        -11    1    4    4    0    0  0.55723158397E-02  0.88842997564E-01  0.37900403265E-01  0.96751385564E-01  0.51100000000E-03 0.  1.
         11    1    4    4    0    0 -0.62798155565E-02  0.36583609287E-01  0.55329573331E-02  0.37532269978E-01  0.51100000000E-03 0. -1.
</event>
<event>
 8    1  0.1166736E+005  0.1043930E+01  0.7957747E-01            NaN
         13   -1    0    0    0    0  0.00000000000E+00  0.00000000000E+00  0.74505805969E-08  0.10566000000E+00  0.10566000000E+00 0. -1.
     999900   -1    0    0    0    0 -0.00000000000E+00 -0.00000000000E+00 -0.74505805969E-08  0.93827000000E+00  0.93827000000E+00 0.  1.
     999902    2    1    2    0    0 -0.16713271022E-01 -0.13771933423E-01 -0.10615675027E-01  0.10198117054E+01  0.10195264697E+01 0.  0.
     999903    2    3    3    0    0 -0.52873622059E-01 -0.57940300520E-01  0.10272175833E+00  0.13070890513E+00  0.19502818064E-01 0.  0.
         14    1    1    2    0    0  0.16713271022E-01  0.13771933423E-01  0.10615675027E-01  0.24118294607E-01  0.00000000000E+00 0. -1.
     999901    1    3    3    0    0  0.36160351037E-01  0.44168367097E-01 -0.11333743335E+00  0.88910280026E+00  0.88000000000E+00 0. -1.
        -11    1    4    4    0    0 -0.52405103248E-01 -0.50221959995E-01  0.88013892886E-01  0.11408438357E+00  0.51100000000E-03 0. -1.
         11    1    4    4    0    0 -0.46851881175E-03 -0.77183405247E-02  0.14707865439E-01  0.16624521560E-01  0.51100000000E-03 0.  1.
</event>
<event>
 8    1  0.1166736E+005  0.1043930E+01  0.7957747E-01            NaN
         13   -1    0    0    0    0  0.00000000000E+00  0.00000000000E+00  0.74505805969E-08  0.10566000000E+00  0.10566000000E+00 0.  1.
     999900   -1    0    0    0    0 -0.00000000000E+00 -0.00000000000E+00 -0.74505805969E-08  0.93827000000E+00  0.93827000000E+00 0. -1.
     999902    2    1    2    0    0  0.15788104218E-01 -0.11988249570E-01 -0.14631102013E-01  0.10192915847E+01  0.10189937601E+01 0.  0.
     999903    2    3    3    0    0 -0.91902240831E-01  0.64503134683E-01 -0.58949555949E-01  0.12833015588E+00  0.19669837510E-01 0.  0.
         14    1    1    2    0    0 -0.15788104218E-01  0.11988249570E-01  0.14631102013E-01  0.24638415303E-01  0.00000000000E+00 0.  1.
     999901    1    3    3    0    0  0.10769034505E+00 -0.76491384253E-01  0.44318453936E-01  0.89096142882E+00  0.88000000000E+00 0. -1.
        -11    1    4    4    0    0 -0.47576585437E-01  0.24738037101E-01 -0.20316513895E-01  0.57345652139E-01  0.51100000000E-03 0.  1.
         11    1    4    4    0    0 -0.44325655394E-01  0.39765097582E-01 -0.38633042054E-01  0.70984503740E-01  0.51100000000E-03 0. -1.
</event>
<event>
 8    1  0.1166736E+005  0.1043930E+01  0.7957747E-01            NaN
         13   -1    0    0    0    0  0.00000000000E+00  0.00000000000E+00  0.74505805969E-08  0.10566000000E+00  0.10566000000E+00 0. -1.
     999900   -1    0    0    0    0 -0.00000000000E+00 -0.00000000000E+00 -0.74505805969E-08  0.93827000000E+00  0.93827000000E+00 0. -1.
     999902    2    1    2    0    0  0.17261861545E-01 -0.87716526852E-02  0.14171947213E-01  0.10199350455E+01  0.10196527542E+01 0.  0.
     999903    2    3    3    0    0  0.29331590687E-01  0.23710836181E-01  0.12521631701E+00  0.13227990832E+00  0.19907338724E-01 0.  0.
         14    1    1    2    0    0 -0.17261861545E-01  0.87716526852E-02 -0.14171947213E-01  0.23994954525E-01  0.00000000000E+00 0.  1.
     999901    1    3    3    0    0 -0.12069729142E-01 -0.32482488866E-01 -0.11104436980E+00  0.88765513715E+00  0.88000000000E+00 0. -1.
        -11    1    4    4    0    0  0.27603023368E-01  0.12666585547E-01  0.76830458950E-01  0.82616885876E-01  0.51100000000E-03 0.  1.
         11    1    4    4    0    0  0.17285673191E-02  0.11044250633E-01  0.48385858065E-01  0.49663022448E-01  0.51100000000E-03 0. -1.
</event>
<event>
 8    1  0.1166736E+005  0.1043930E+01  0.7957747E-01            NaN
         13   -1    0    0    0    0  0.00000000000E+00  0.00000000000E+00  0.74505805969E-08  0.10566000000E+00  0.10566000000E+00 0.  1.
     999900   -1    0    0    0    0 -0.00000000000E+00 -0.00000000000E+00 -0.74505805969E-08  0.93827000000E+00  0.93827000000E+00 0. -1.
     999902    2    1    2    0    0  0.15202722856E-01  0.17615702397E-01  0.96232808765E-03  0.10206413369E+01  0.10203756057E+01 0.  0.
     999903    2    3    3    0    0  0.43000817353E-02  0.23401413572E-01  0.12667032177E+00  0.13162230353E+00  0.26701002002E-01 0.  0.
         14    1    1    2    0    0 -0.15202722856E-01 -0.17615702397E-01 -0.96232808765E-03  0.23288663090E-01  0.00000000000E+00 0. -1.
     999901    1    3    3    0    0  0.10902641121E-01 -0.57857111750E-02 -0.12570799369E+00  0.88901903338E+00  0.88000000000E+00 0. -1.
        -11    1    4    4    0    0 -0.98087989277E-02  0.64085003135E-02  0.66458909172E-01  0.67485769923E-01  0.51100000000E-03 0. -1.
         11    1    4    4    0    0  0.14108880663E-01  0.16992913258E-01  0.60211412601E-01  0.64136533606E-01  0.51100000000E-03 0.  1.
</event>
<event>
 8    1  0.1166736E+005  0.1043930E+01  0.7957747E-01            NaN
         13   -1    0    0    0    0  0.00000000000E+00  0.00000000000E+00  0.74505805969E-08  0.10566000000E+00  0.10566000000E+00 0. -1.
     999900   -1    0    0    0    0 -0.00000000000E+00 -0.00000000000E+00 -0.74505805969E-08  0.93827000000E+00  0.93827000000E+00 0.  1.
     999902    2    1    2    0    0  0.23739771001E-02 -0.20808856733E-01  0.12502677190E-01  0.10195381730E+01  0.10192463515E+01 0.  0.
     999903    2    3    3    0    0  0.34040604405E-01 -0.92718122196E-01 -0.83524457700E-01  0.13083410059E+00  0.19642146299E-01 0.  0.
         14    1    1    2    0    0 -0.23739771001E-02  0.20808856733E-01 -0.12502677190E-01  0.24391826966E-01  0.00000000000E+00 0. -1.
     999901    1    3    3    0    0 -0.31666627305E-01  0.71909265463E-01  0.96027134890E-01  0.88870407244E+00  0.88000000000E+00 0. -1.
        -11    1    4    4    0    0  0.26066011717E-01 -0.85920089118E-01 -0.70812759140E-01  0.11435211698E+00  0.51100000000E-03 0. -1.
         11    1    4    4    0    0  0.79745926885E-02 -0.67980330780E-02 -0.12711698560E-01  0.16481983605E-01  0.51100000000E-03 0.  1.
</event>
<event>
 8    1  0.1166736E+005  0.1043930E+01  0.7957747E-01            NaN
         13   -1    0    0    0    0  0.00000000000E+00  0.00000000000E+00  0.74505805969E-08  0.10566000000E+00  0.10566000000E+00 0.  1.
     999900   -1    0    0    0    0 -0.00000000000E+00 -0.00000000000E+00 -0.74505805969E-08  0.93827000000E+00  0.93827000000E+00 0.  1.
     999902    2    1    2    0    0  0.15341884686E-01 -0.32529637997E-02  0.19417658373E-01  0.10189700189E+01  0.10186642719E+01 0.  0.
     999903    2    3    3    0    0  0.55273215554E-01 -0.95110305358E-01 -0.65144335035E-01  0.12926050839E+00  0.19062950958E-01 0.  0.
         14    1    1    2    0    0 -0.15341884686E-01  0.32529637997E-02 -0.19417658373E-01  0.24959981088E-01  0.00000000000E+00 0. -1.
     999901    1    3    3    0    0 -0.39931330868E-01  0.91857341558E-01  0.84561993409E-01  0.88970951052E+00  0.88000000000E+00 0.  1.
        -11    1    4    4    0    0  0.39948824902E-01 -0.62531614693E-01 -0.33874408014E-01  0.81571122871E-01  0.51100000000E-03 0.  1.
         11    1    4    4    0    0  0.15324390652E-01 -0.32578690665E-01 -0.31269927021E-01  0.47689385519E-01  0.51100000000E-03 0. -1.
</event>
<event>
 8    1  0.1166736E+005  0.1043930E+01  0.7957747E-01            NaN
         13   -1    0    0    0    0  0.00000000000E+00  0.00000000000E+00  0.74505805969E-08  0.10566000000E+00  0.10566000000E+00 0.  1.
     999900   -1    0    0    0    0 -0.00000000000E+00 -0.00000000000E+00 -0.74505805969E-08  0.93827000000E+00  0.93827000000E+00 0. -1.
     999902    2    1    2    0    0  0.61165730108E-02  0.18721862268E-02  0.22033156241E-01  0.10209870813E+01  0.10207292700E+01 0.  0.
     999903    2    3    3    0    0 -0.10172968043E+00  0.79017399040E-01  0.15415279103E-01  0.13102865833E+00  0.18390248528E-01 0.  0.
         14    1    1    2    0    0 -0.61165730108E-02 -0.18721862268E-02 -0.22033156241E-01  0.22942918746E-01  0.00000000000E+00 0.  1.
     999901    1    3    3    0    0  0.10784625344E+00 -0.77145212813E-01  0.66178771375E-02  0.88995842293E+00  0.88000000000E+00 0. -1.
        -11    1    4    4    0    0 -0.40297626407E-01  0.42326607102E-01  0.41571727057E-02  0.58591668083E-01  0.51100000000E-03 0. -1.
         11    1    4    4    0    0 -0.61432054026E-01  0.36690791938E-01  0.11258106397E-01  0.72436990244E-01  0.51100000000E-03 0.  1.
</event>
<event>
 8    1  0.1166736E+005  0.1043930E+01  0.7957747E-01            NaN
         13   -1    0    0    0    0  0.00000000000E+00  0.00000000000E+00  0.74505805969E-08  0.10566000000E+00  0.10566000000E+00 0. -1.
     999900   -1    0    0    0    0 -0.00000000000E+00 -0.00000000000E+00 -0.74505805969E-08  0.93827000000E+00  0.93827000000E+00 0. -1.
     999902    2    1    2    0    0  0.57056568312E-02 -0.70488265855E-02  0.21256030394E-01  0.10208202768E+01  0.10205586599E+01 0.  0.
     999903    2    3    3    0    0  0.10345018021E-01  0.10608977807E+00 -0.69684931998E-01  0.12891662388E+00  0.20036111318E-01 0.  0.
         14    1    1    2    0    0 -0.57056568312E-02  0.70488265855E-02 -0.21256030394E-01  0.23109723154E-01  0.00000000000E+00 0.  1.
     999901    1    3    3    0    0 -0.46393611899E-02 -0.11313860465E+00  0.90940962392E-01  0.89190365297E+00  0.88000000000E+00 0. -1.
        -11    1    4    4    0    0  0.73169401328E-02  0.15974629569E-01 -0.17164012762E-01  0.24568086166E-01  0.51100000000E-03 0. -1.
         11    1    4    4    0    0  0.30280778883E-02  0.90115148498E-01 -0.52520919236E-01  0.10434853771E+00  0.51100000000E-03 0.  1.
</event>
<event>
 8    1  0.1166736E+005  0.1043930E+01  0.7957747E-01            NaN
         13   -1    0    0    0    0  0.00000000000E+00  0.00000000000E+00  0.74505805969E-08  0.10566000000E+00  0.10566000000E+00 0. -1.
     999900   -1    0    0    0    0 -0.00000000000E+00 -0.00000000000E+00 -0.74505805969E-08  0.93827000000E+00  0.93827000000E+00 0. -1.
     999902    2    1    2    0    0 -0.15019005082E-01 -0.94569233573E-03  0.15626960992E-01  0.10222351444E+01  0.10220049040E+01 0.  0.
     999903    2    3    3    0    0  0.43859630545E-01 -0.42883917897E-01  0.11698402356E+00  0.13347265501E+00  0.19156989890E-01 0.  0.
         14    1    1    2    0    0  0.15019005082E-01  0.94569233573E-03 -0.15626960992E-01  0.21694855553E-01  0.00000000000E+00 0.  1.
     999901    1    3    3    0    0 -0.58878635626E-01  0.41938225561E-01 -0.10135706257E+00  0.88876248944E+00  0.88000000000E+00 0. -1.
        -11    1    4    4    0    0  0.14885669273E-01 -0.26185200720E-01  0.45745742903E-01  0.54773917162E-01  0.51100000000E-03 0.  1.
         11    1    4    4    0    0  0.28973961272E-01 -0.16698717177E-01  0.71238280656E-01  0.78698737849E-01  0.51100000000E-03 0. -1.
</event>
<event>
 8    1  0.1166736E+005  0.1043930E+01  0.7957747E-01            NaN
         13   -1    0    0    0    0  0.00000000000E+00  0.00000000000E+00  0.74505805969E-08  0.10566000000E+00  0.10566000000E+00 0.  1.
     999900   -1    0    0    0    0 -0.00000000000E+00 -0.00000000000E+00 -0.74505805969E-08  0.93827000000E+00  0.93827000000E+00 0. -1.
     999902    2    1    2    0    0  0.92520858669E-03  0.25339189842E-03  0.25585332831E-01  0.10183266902E+01  0.10180047733E+01 0.  0.
     999903    2    3    3    0    0  0.42721404337E-01  0.94175753088E-01  0.77635843201E-01  0.13081466910E+00  0.19772775308E-01 0.  0.
         14    1    1    2    0    0 -0.92520858669E-03 -0.25339189842E-03 -0.25585332831E-01  0.25603309834E-01  0.00000000000E+00 0. -1.
     999901    1    3    3    0    0 -0.41796195751E-01 -0.93922361189E-01 -0.52050510370E-01  0.88751202107E+00  0.88000000000E+00 0. -1.
        -11    1    4    4    0    0  0.25525755789E-01  0.71443051684E-01  0.48464986102E-01  0.90026606297E-01  0.51100000000E-03 0.  1.
         11    1    4    4    0    0  0.17195648548E-01  0.22732701404E-01  0.29170857099E-01  0.40788062800E-01  0.51100000000E-03 0. -1.
</event>
<event>
 8    1  0.1166736E+005  0.1043930E+01  0.7957747E-01            NaN
         13   -1    0    0    0    0  0.00000000000E+00  0.00000000000E+00  0.74505805969E-08  0.10566000000E+00  0.10566000000E+00 0. -1.
     999900   -1    0    0    0    0 -0.00000000000E+00 -0.00000000000E+00 -0.74505805969E-08  0.93827000000E+00  0.93827000000E+00 0.  1.
     999902    2    1    2    0    0 -0.17530050972E-01 -0.76641318632E-02 -0.15466212742E-01  0.10193282655E+01  0.10190313378E+01 0.  0.
     999903    2    3    3    0    0  0.58560531824E-01  0.84041703873E-01  0.72281158284E-01  0.12697220527E+00  0.20125386695E-01 0.  0.
         14    1    1    2    0    0  0.17530050972E-01  0.76641318632E-02  0.15466212742E-01  0.24601734510E-01  0.00000000000E+00 0. -1.
     999901    1    3    3    0    0 -0.76090582796E-01 -0.91705835737E-01 -0.87747371026E-01  0.89235606023E+00  0.88000000000E+00 0.  1.
        -11    1    4    4    0    0  0.41147302402E-01  0.43112224419E-01  0.46188076087E-01  0.75401351997E-01  0.51100000000E-03 0. -1.
         11    1    4    4    0    0  0.17413229422E-01  0.40929479455E-01  0.26093082197E-01  0.51570853269E-01  0.51100000000E-03 0.  1.
</event>
<event>
 8    1  0.1166736E+005  0.1043930E+01  0.7957747E-01            NaN
         13   -1    0    0    0    0  0.00000000000E+00  0.00000000000E+00  0.74505805969E-08  0.10566000000E+00  0.10566000000E+00 0. -1.
     999900   -1    0    0    0    0 -0.00000000000E+00 -0.00000000000E+00 -0.74505805969E-08  0.93827000000E+00  0.93827000000E+00 0.  1.
     999902    2    1    2    0    0  0.82308875774E-02 -0.21886461635E-01 -0.31092328654E-02  0.10203411882E+01  0.10200684822E+01 0.  0.
     999903    2    3    3    0    0  0.78134554546E-01  0.81281066442E-01  0.60100700430E-01  0.12931618452E+00  0.19974008402E-01 0.  0.
         14    1    1    2    0    0 -0.82308875774E-02  0.21886461635E-01  0.31092328654E-02  0.23588811802E-01  0.00000000000E+00 0. -1.
     999901    1    3    3    0    0 -0.69903666969E-01 -0.10316752808E+00 -0.63209933295E-01  0.89102500367E+00  0.88000000000E+00 0. -1.
        -11    1    4    4    0    0  0.16011137031E-01  0.12736079653E-01  0.32153117025E-02  0.20716263763E-01  0.51100000000E-03 0.  1.
         11    1    4    4    0    0  0.62123417515E-01  0.68544986789E-01  0.56885388727E-01  0.10859992076E+00  0.51100000000E-03 0. -1.
</event>
<event>
 8    1  0.1166736E+005  0.1043930E+01  0.7957747E-01            NaN
         13   -1    0    0    0    0  0.00000000000E+00  0.00000000000E+00  0.74505805969E-08  0.10566000000E+00  0.10566000000E+00 0. -1.
     999900   -1    0    0    0    0 -0.00000000000E+00 -0.00000000000E+00 -0.74505805969E-08  0.93827000000E+00  0.93827000000E+00 0. -1.
     999902    2    1    2    0    0 -0.82339327515E-02  0.22874130866E-01  0.16529707678E-02  0.10195628946E+01  0.10192716715E+01 0.  0.
     999903    2    3    3    0    0 -0.17616300395E-01 -0.82022634207E-02  0.12745852321E+00  0.13002323384E+00  0.16815321459E-01 0.  0.
         14    1    1    2    0    0  0.82339327515E-02 -0.22874130866E-01 -0.16529707678E-02  0.24367105363E-01  0.00000000000E+00 0. -1.
     999901    1    3    3    0    0  0.93823676440E-02  0.31076394287E-01 -0.12580555244E+00  0.88953966080E+00  0.88000000000E+00 0. -1.
        -11    1    4    4    0    0 -0.50640281607E-02 -0.22426049982E-02  0.79150213674E-02  0.96737967023E-02  0.51100000000E-03 0. -1.
         11    1    4    4    0    0 -0.12552272235E-01 -0.59596584224E-02  0.11954350184E+00  0.12034943714E+00  0.51100000000E-03 0.  1.
</event>
<event>
 8    1  0.1166736E+005  0.1043930E+01  0.7957747E-01            NaN
         13   -1    0    0    0    0  0.00000000000E+00  0.00000000000E+00  0.74505805969E-08  0.10566000000E+00  0.10566000000E+00 0.  1.
     999900   -1    0    0    0    0 -0.00000000000E+00 -0.00000000000E+00 -0.74505805969E-08  0.93827000000E+00  0.93827000000E+00 0. -1.
     999902    2    1    2    0    0  0.19862067205E-01  0.13061259028E-01 -0.11409571618E-01  0.10175619033E+01  0.10172202075E+01 0.  0.
     999903    2    3    3    0    0  0.12748031788E+00 -0.41313565498E-02 -0.20622620151E-01  0.13079127104E+00  0.20316608081E-01 0.  0.
         14    1    1    2    0    0 -0.19862067205E-01 -0.13061259028E-01  0.11409571618E-01  0.26368096738E-01  0.00000000000E+00 0.  1.
     999901    1    3    3    0    0 -0.10761825068E+00  0.17192615578E-01  0.92130485324E-02  0.88677063222E+00  0.88000000000E+00 0. -1.
        -11    1    4    4    0    0  0.57918593435E-01 -0.76548850317E-02 -0.10230299947E-02  0.58433453104E-01  0.51100000000E-03 0. -1.
         11    1    4    4    0    0  0.69561724448E-01  0.35235284819E-02 -0.19599590156E-01  0.72357817935E-01  0.51100000000E-03 0.  1.
</event>
<event>
 8    1  0.1166736E+005  0.1043930E+01  0.7957747E-01            NaN
         13   -1    0    0    0    0  0.00000000000E+00  0.00000000000E+00  0.74505805969E-08  0.10566000000E+00  0.10566000000E+00 0. -1.
     999900   -1    0    0    0    0 -0.00000000000E+00 -0.00000000000E+00 -0.74505805969E-08  0.93827000000E+00  0.93827000000E+00 0. -1.
     999902    2    1    2    0    0 -0.22290081839E-01 -0.40690697756E-02  0.57984540075E-02  0.10205413885E+01  0.10202733450E+01 0.  0.
     999903    2    3    3    0    0 -0.66370207325E-01 -0.74031747536E-01  0.85952664052E-01  0.13303784988E+00  0.20627772047E-01 0.  0.
         14    1    1    2    0    0  0.22290081839E-01  0.40690697756E-02 -0.57984540075E-02  0.23388611461E-01  0.00000000000E+00 0. -1.
     999901    1    3    3    0    0  0.44080125487E-01  0.69962677760E-01 -0.80154210045E-01  0.88750353866E+00  0.88000000000E+00 0. -1.
        -11    1    4    4    0    0 -0.66163678944E-01 -0.71660579652E-01  0.78511426164E-01  0.12520853105E+00  0.51100000000E-03 0.  1.
         11    1    4    4    0    0 -0.20652838167E-03 -0.23711678834E-02  0.74412378882E-02  0.78293188346E-02  0.51100000000E-03 0. -1.
</event>
<event>
 8    1  0.1166736E+005  0.1043930E+01  0.7957747E-01            NaN
         13   -1    0    0    0    0  0.00000000000E+00  0.00000000000E+00  0.74505805969E-08  0.10566000000E+00  0.10566000000E+00 0. -1.
     999900   -1    0    0    0    0 -0.00000000000E+00 -0.00000000000E+00 -0.74505805969E-08  0.93827000000E+00  0.93827000000E+00 0.  1.
     999902    2    1    2    0    0 -0.34936606550E-02  0.14823010458E-01  0.21568403290E-01  0.10175269069E+01  0.10171842916E+01 0.  0.
     999903    2    3    3    0    0 -0.68305891316E-01  0.55359777631E-01  0.95080138864E-01  0.13115913336E+00  0.20786670953E-01 0.  0.
         14    1    1    2    0    0  0.34936606550E-02 -0.14823010458E-01 -0.21568403290E-01  0.26403093082E-01  0.00000000000E+00 0.  1.
     999901    1    3    3    0    0  0.64812230661E-01 -0.40536767173E-01 -0.73511735574E-01  0.88636777356E+00  0.88000000000E+00 0.  1.
        -11    1    4    4    0    0 -0.46489891550E-01  0.47042111425E-01  0.77759165415E-01  0.10208339332E+00  0.51100000000E-03 0. -1.
         11    1    4    4    0    0 -0.21815999766E-01  0.83176662060E-02  0.17320973449E-01  0.29075740044E-01  0.51100000000E-03 0.  1.
</event>
<event>
 8    1  0.1166736E+005  0.1043930E+01  0.7957747E-01            NaN
         13   -1    0    0    0    0  0.00000000000E+00  0.00000000000E+00  0.74505805969E-08  0.10566000000E+00  0.10566000000E+00 0. -1.
     999900   -1    0    0    0    0 -0.00000000000E+00 -0.00000000000E+00 -0.74505805969E-08  0.93827000000E+00  0.93827000000E+00 0. -1.
     999902    2    1    2    0    0  0.17375271289E-01  0.16052205054E-01  0.84611050557E-02  0.10188070297E+01  0.10184972263E+01 0.  0.
     999903    2    3    3    0    0  0.12590091641E+00  0.32127328075E-01 -0.85710965483E-02  0.13183108799E+00  0.20561276756E-01 0.  0.
         14    1    1    2    0    0 -0.17375271289E-01 -0.16052205054E-01 -0.84611050557E-02  0.25122970331E-01  0.00000000000E+00 0.  1.
     999901    1    3    3    0    0 -0.10852564512E+00 -0.16075123021E-01  0.17032201604E-01  0.88697594168E+00  0.88000000000E+00 0. -1.
        -11    1    4    4    0    0  0.45961679412E-01  0.17958609076E-02 -0.47476271495E-02  0.46243942039E-01  0.51100000000E-03 0.  1.
         11    1    4    4    0    0  0.79939236999E-01  0.30331467168E-01 -0.38234693988E-02  0.85587145950E-01  0.51100000000E-03 0. -1.
</event>
<event>
 8    1  0.1166736E+005  0.1043930E+01  0.7957747E-01            NaN
         13   -1    0    0    0    0  0.00000000000E+00  0.00000000000E+00  0.74505805969E-08  0.10566000000E+00  0.10566000000E+00 0.  1.
     999900   -1    0    0    0    0 -0.00000000000E+00 -0.00000000000E+00 -0.74505805969E-08  0.93827000000E+00  0.93827000000E+00 0.  1.
     999902    2    1    2    0    0 -0.34238191323E-02  0.63412163997E-02 -0.21818890069E-01  0.10209518032E+01  0.10206931895E+01 0.  0.
     999903    2    3    3    0    0  0.31406257576E-01 -0.12435294970E+00  0.88969596099E-02  0.13008842273E+00  0.19845219207E-01 0.  0.
         14    1    1    2    0    0  0.34238191323E-02 -0.63412163997E-02  0.21818890069E-01  0.22978196768E-01  0.00000000000E+00 0.  1.
     999901    1    3    3    0    0 -0.34830076709E-01  0.13069416610E+00 -0.30715849679E-01  0.89086338050E+00  0.88000000000E+00 0. -1.
        -11    1    4    4    0    0  0.33344470475E-01 -0.10776758195E+00  0.10545366150E-01  0.11330124138E+00  0.51100000000E-03 0.  1.
         11    1    4    4    0    0 -0.19382128982E-02 -0.16585367751E-01 -0.16484065404E-02  0.16787181353E-01  0.51100000000E-03 0. -1.
</event>
<event>
 8    1  0.1166736E+005  0.1043930E+01  0.7957747E-01            NaN
         13   -1    0    0    0    0  0.00000000000E+00  0.00000000000E+00  0.74505805969E-08  0.10566000000E+00  0.10566000000E+00 0. -1.
     999900   -1    0    0    0    0 -0.00000000000E+00 -0.00000000000E+00 -0.74505805969E-08  0.93827000000E+00  0.93827000000E+00 0.  1.
     999902    2    1    2    0    0  0.47884263608E-02  0.11289232036E-01  0.21104273270E-01  0.10195216789E+01  0.10192294578E+01 0.  0.
     999903    2    3    3    0    0  0.73626244884E-01  0.95745250003E-01  0.50628237022E-01  0.13231080847E+00  0.18840244716E-01 0.  0.
         14    1    1    2    0    0 -0.47884263608E-02 -0.11289232036E-01 -0.21104273270E-01  0.24408321065E-01  0.00000000000E+00 0.  1.
     999901    1    3    3    0    0 -0.68837818523E-01 -0.84456017968E-01 -0.29523963752E-01  0.88721087046E+00  0.88000000000E+00 0.  1.
        -11    1    4    4    0    0  0.49388971359E-01  0.49147365039E-01  0.30468444834E-01  0.76048150759E-01  0.51100000000E-03 0.  1.
         11    1    4    4    0    0  0.24237273525E-01  0.46597884964E-01  0.20159792188E-01  0.56262657714E-01  0.51100000000E-03 0. -1.
</event>
<event>
 8    1  0.1166736E+005  0.1043930E+01  0.7957747E-01            NaN
         13   -1    0    0    0    0  0.00000000000E+00  0.00000000000E+00  0.74505805969E-08  0.10566000000E+00  0.10566000000E+00 0.  1.
     999900   -1    0    0    0    0 -0.00000000000E+00 -0.00000000000E+00 -0.74505805969E-08  0.93827000000E+00  0.93827000000E+00 0.  1.
     999902    2    1    2    0    0 -0.19719760269E-01  0.65559761057E-02 -0.10572069745E-01  0.10206143738E+01  0.10203480198E+01 0.  0.
     999903    2    3    3    0    0  0.25267056669E-01 -0.55855922982E-01 -0.11381962342E+00  0.13124430671E+00  0.22624170340E-01 0.  0.
         14    1    1    2    0    0  0.19719760269E-01 -0.65559761057E-02  0.10572069745E-01  0.23315626229E-01  0.00000000000E+00 0.  1.
     999901    1    3    3    0    0 -0.44986816938E-01  0.62411899087E-01  0.10324755367E+00  0.88937006706E+00  0.88000000000E+00 0. -1.
        -11    1    4    4    0    0  0.95856962508E-02 -0.17084671598E-01 -0.17651181791E-01  0.26374171377E-01  0.51100000000E-03 0.  1.
         11    1    4    4    0    0  0.15681360418E-01 -0.38771251384E-01 -0.96168441628E-01  0.10487013533E+00  0.51100000000E-03 0. -1.
</event>
<event>
 8    1  0.1166736E+005  0.1043930E+01  0.7957747E-01            NaN
         13   -1    0    0    0    0  0.00000000000E+00  0.00000000000E+00  0.74505805969E-08  0.10566000000E+00  0.10566000000E+00 0. -1.
     999900   -1    0    0    0    0 -0.00000000000E+00 -0.00000000000E+00 -0.74505805969E-08  0.93827000000E+00  0.93827000000E+00 0.  1.
     999902    2    1    2    0    0  0.20944019639E-01  0.11326710199E-01 -0.11538040226E-01  0.10174711131E+01  0.10171270291E+01 0.  0.
     999903    2    3    3    0    0 -0.87360102720E-02  0.64004286327E-01  0.10777788280E+00  0.12736318669E+00  0.20795258133E-01 0.  0.
         14    1    1    2    0    0 -0.20944019639E-01 -0.11326710199E-01  0.11538040226E-01  0.26458886878E-01  0.00000000000E+00 0. -1.
     999901    1    3    3    0    0  0.29680029911E-01 -0.52677576127E-01 -0.11931592302E+00  0.89010792643E+00  0.88000000000E+00 0.  1.
        -11    1    4    4    0    0 -0.12560225143E-01  0.20969052010E-01  0.43805272553E-01  0.50165958800E-01  0.51100000000E-03 0.  1.
         11    1    4    4    0    0  0.38242148707E-02  0.43035234316E-01  0.63972610245E-01  0.77197227895E-01  0.51100000000E-03 0. -1.
</event>
<event>
 8    1  0.1166736E+005  0.1043930E+01  0.7957747E-01            NaN
         13   -1    0    0    0    0  0.00000000000E+00  0.00000000000E+00  0.74505805969E-08  0.10566000000E+00  0.10566000000E+00 0.  1.
     999900   -1    0    0    0    0 -0.00000000000E+00 -0.00000000000E+00 -0.74505805969E-08  0.93827000000E+00  0.93827000000E+00 0.  1.
     999902    2    1    2    0    0  0.15039115137E-01 -0.14994236975E-01 -0.65428653893E-02  0.10217081366E+01  0.10214664484E+01 0.  0.
     999903    2    3    3    0    0  0.83072586932E-02  0.97766566768E-01 -0.84645695148E-01  0.13105648258E+00  0.19585601699E-01 0.  0.
         14    1    1    2    0    0 -0.15039115137E-01  0.14994236975E-01  0.65428653893E-02  0.22221863425E-01  0.00000000000E+00 0. -1.
     999901    1    3    3    0    0  0.67318564439E-02 -0.11276080374E+00  0.78102829759E-01  0.89065165400E+00  0.88000000000E+00 0. -1.
        -11    1    4    4    0    0  0.21964406726E-02  0.83903557430E-01 -0.64551112476E-01  0.10588549733E+00  0.51100000000E-03 0.  1.
         11    1    4    4    0    0  0.61108180206E-02  0.13863009338E-01 -0.20094582672E-01  0.25170985252E-01  0.51100000000E-03 0. -1.
</event>
<event>
 8    1  0.1166736E+005  0.1043930E+01  0.7957747E-01            NaN
         13   -1    0    0    0    0  0.00000000000E+00  0.00000000000E+00  0.74505805969E-08  0.10566000000E+00  0.10566000000E+00 0.  1.
     999900   -1    0    0    0    0 -0.00000000000E+00 -0.00000000000E+00 -0.74505805969E-08  0.93827000000E+00  0.93827000000E+00 0.  1.
     999902    2    1    2    0    0  0.75626895649E-02  0.20528870587E-02  0.20903150301E-01  0.10216062389E+01  0.10213623045E+01 0.  0.
     999903    2    3    3    0    0 -0.25511302054E-01 -0.12034277311E+00  0.44067244351E-01  0.13221815608E+00  0.20162073277E-01 0.  0.
         14    1    1    2    0    0 -0.75626895649E-02 -0.20528870587E-02 -0.20903150301E-01  0.22323761135E-01  0.00000000000E+00 0. -1.
     999901    1    3    3    0    0  0.33073991619E-01  0.12239566017E+00 -0.23164094050E-01  0.88938808279E+00  0.88000000000E+00 0.  1.
        -11    1    4    4    0    0 -0.70235105226E-02 -0.34411457775E-01  0.31604082412E-02  0.35266519924E-01  0.51100000000E-03 0. -1.
         11    1    4    4    0    0 -0.18487791532E-01 -0.85931315338E-01  0.40906836109E-01  0.96951636154E-01  0.51100000000E-03 0.  1.
</event>
<event>
 7    1  0.1166736E+005  0.1043930E+01  0.7957747E-01            NaN
         13   -1    0    0    0    0  0.00000000000E+00  0.00000000000E+00  0.74505805969E-08  0.10566000000E+00  0.10566000000E+00 0. -1.
     999900   -1    0    0    0    0 -0.00000000000E+00 -0.00000000000E+00 -0.74505805969E-08  0.93827000000E+00  0.93827000000E+00 0.  1.
     999902    2    1    2    0    0  0.15422929394E-01  0.15773261324E-01  0.13399033533E-02  0.10218289171E+01  0.10215898776E+01 0.  0.
         14    1    1    2    0    0 -0.15422929394E-01 -0.15773261324E-01 -0.13399033533E-02  0.22101082890E-01  0.00000000000E+00 0. -1.
     999901    1    3    3    0    0 -0.49449290189E-01 -0.62237836839E-01  0.80158501271E-01  0.88721145504E+00  0.88000000000E+00 0. -1.
        -11    1    3    3    0    0  0.57815197580E-01  0.43076105410E-01 -0.42326836472E-01  0.83606041261E-01  0.51100000000E-03 0. -1.
         11    1    3    3    0    0  0.70570220032E-02  0.34934992753E-01 -0.36491761446E-01  0.51011420806E-01  0.51100000000E-03 0.  1.
</event>
<event>
 8    1  0.1166736E+005  0.1043930E+01  0.7957747E-01            NaN
         13   -1    0    0    0    0  0.00000000000E+00  0.00000000000E+00  0.74505805969E-08  0.10566000000E+00  0.10566000000E+00 0.  1.
     999900   -1    0    0    0    0 -0.00000000000E+00 -0.00000000000E+00 -0.74505805969E-08  0.93827000000E+00  0.93827000000E+00 0.  1.
     999902    2    1    2    0    0 -0.10977575345E-01 -0.84855929556E-02 -0.19980452426E-01  0.10196044799E+01  0.10193142619E+01 0.  0.
     999903    2    3    3    0    0 -0.31233908540E-01 -0.79734668412E-01 -0.99441661537E-01  0.13292481197E+00  0.21146801165E-01 0.  0.
         14    1    1    2    0    0  0.10977575345E-01  0.84855929556E-02  0.19980452426E-01  0.24325520085E-01  0.00000000000E+00 0.  1.
     999901    1    3    3    0    0  0.20256333195E-01  0.71249075457E-01  0.79461209111E-01  0.88667966794E+00  0.88000000000E+00 0. -1.
        -11    1    4    4    0    0 -0.78651760011E-02 -0.46764779213E-01 -0.59693057357E-01  0.76238623977E-01  0.51100000000E-03 0. -1.
         11    1    4    4    0    0 -0.23368732539E-01 -0.32969889199E-01 -0.39748604180E-01  0.56686187996E-01  0.51100000000E-03 0.  1.
</event>
<event>
 8    1  0.1166736E+005  0.1043930E+01  0.7957747E-01            NaN
         13   -1    0    0    0    0  0.00000000000E+00  0.00000000000E+00  0.74505805969E-08  0.10566000000E+00  0.10566000000E+00 0.  1.
     999900   -1    0    0    0    0 -0.00000000000E+00 -0.00000000000E+00 -0.74505805969E-08  0.93827000000E+00  0.93827000000E+00 0.  1.
     999902    2    1    2    0    0  0.87938668115E-02  0.10165847743E-02  0.21312300250E-01  0.10208523121E+01  0.10205914282E+01 0.  0.
     999903    2    3    3    0    0  0.82564914977E-01 -0.91532189600E-01  0.44533981521E-01  0.13262560134E+00  0.20277270567E-01 0.  0.
         14    1    1    2    0    0 -0.87938668115E-02 -0.10165847743E-02 -0.21312300250E-01  0.23077687927E-01  0.00000000000E+00 0.  1.
     999901    1    3    3    0    0 -0.73771048166E-01  0.92548774374E-01 -0.23221681271E-01  0.88822671074E+00  0.88000000000E+00 0.  1.
        -11    1    4    4    0    0  0.93858805778E-02 -0.21159483832E-01  0.50949587673E-02  0.23707345615E-01  0.51100000000E-03 0.  1.
         11    1    4    4    0    0  0.73179034400E-01 -0.70372705767E-01  0.39439022753E-01  0.10891825572E+00  0.51100000000E-03 0. -1.
</event>
<event>
 8    1  0.1166736E+005  0.1043930E+01  0.7957747E-01            NaN
         13   -1    0    0    0    0  0.00000000000E+00  0.00000000000E+00  0.74505805969E-08  0.10566000000E+00  0.10566000000E+00 0.  1.
     999900   -1    0    0    0    0 -0.00000000000E+00 -0.00000000000E+00 -0.74505805969E-08  0.93827000000E+00  0.93827000000E+00 0.  1.
     999902    2    1    2    0    0  0.84530212300E-02  0.10499935514E-02 -0.19072662331E-01  0.10230416659E+01  0.10228283960E+01 0.  0.
     999903    2    3    3    0    0 -0.40455812795E-01 -0.11870403100E+00 -0.40869028310E-01  0.13331801101E+00  0.19393164290E-01 0.  0.
         14    1    1    2    0    0 -0.84530212300E-02 -0.10499935514E-02  0.19072662331E-01  0.20888334131E-01  0.00000000000E+00 0.  1.
     999901    1    3    3    0    0  0.48908834025E-01  0.11975402455E+00  0.21796365979E-01  0.88972365486E+00  0.88000000000E+00 0. -1.
        -11    1    4    4    0    0 -0.72587193592E-02 -0.31964104699E-01 -0.26633086753E-02  0.32889927486E-01  0.51100000000E-03 0. -1.
         11    1    4    4    0    0 -0.33197093436E-01 -0.86739926299E-01 -0.38205719635E-01  0.10042808353E+00  0.51100000000E-03 0.  1.
</event>
<event>
 8    1  0.1166736E+005  0.1043930E+01  0.7957747E-01            NaN
         13   -1    0    0    0    0  0.00000000000E+00  0.00000000000E+00  0.74505805969E-08  0.10566000000E+00  0.10566000000E+00 0. -1.
     999900   -1    0    0    0    0 -0.00000000000E+00 -0.00000000000E+00 -0.74505805969E-08  0.93827000000E+00  0.93827000000E+00 0. -1.
     999902    2    1    2    0    0  0.16850688568E-02 -0.76594755591E-03  0.23277823821E-01  0.10205786999E+01  0.10203115208E+01 0.  0.
     999903    2    3    3    0    0 -0.23908496806E-01  0.10366728423E+00 -0.70189247798E-01  0.12912066729E+00  0.20666256934E-01 0.  0.
         14    1    1    2    0    0 -0.16850688568E-02  0.76594755591E-03 -0.23277823821E-01  0.23351300061E-01  0.00000000000E+00 0.  1.
     999901    1    3    3    0    0  0.25593565663E-01 -0.10443323178E+00  0.93467071619E-01  0.89145803265E+00  0.88000000000E+00 0. -1.
        -11    1    4    4    0    0 -0.21347606983E-01  0.69203195419E-01 -0.56859586879E-01  0.92076469965E-01  0.51100000000E-03 0.  1.
         11    1    4    4    0    0 -0.25608898226E-02  0.34464088807E-01 -0.13329660919E-01  0.37044197321E-01  0.51100000000E-03 0. -1.
</event>
<event>
 8    1  0.1166736E+005  0.1043930E+01  0.7957747E-01            NaN
         13   -1    0    0    0    0  0.00000000000E+00  0.00000000000E+00  0.74505805969E-08  0.10566000000E+00  0.10566000000E+00 0. -1.
     999900   -1    0    0    0    0 -0.00000000000E+00 -0.00000000000E+00 -0.74505805969E-08  0.93827000000E+00  0.93827000000E+00 0.  1.
     999902    2    1    2    0    0 -0.86654157387E-02 -0.34312453592E-01 -0.38003490599E-02  0.10083367906E+01  0.10077083937E+01 0.  0.
     999903    2    3    3    0    0 -0.55140001731E-01 -0.10884329433E+00 -0.30580498377E-02  0.12396397083E+00  0.21689441755E-01 0.  0.
         14    1    1    2    0    0  0.86654157387E-02  0.34312453592E-01  0.38003490599E-02  0.35593209386E-01  0.00000000000E+00 0.  1.
     999901    1    3    3    0    0  0.46474585992E-01  0.74530840738E-01 -0.74229922227E-03  0.88437281978E+00  0.88000000000E+00 0.  1.
        -11    1    4    4    0    0 -0.32544142598E-01 -0.77130384035E-01 -0.10318376908E-01  0.84350147491E-01  0.51100000000E-03 0. -1.
         11    1    4    4    0    0 -0.22595859133E-01 -0.31712910295E-01  0.72603270700E-02  0.39613823339E-01  0.51100000000E-03 0.  1.
</event>
<event>
 8    1  0.1166736E+005  0.1043930E+01  0.7957747E-01            NaN
         13   -1    0    0    0    0  0.00000000000E+00  0.00000000000E+00  0.74505805969E-08  0.10566000000E+00  0.10566000000E+00 0.  1.
     999900   -1    0    0    0    0 -0.00000000000E+00 -0.00000000000E+00 -0.74505805969E-08  0.93827000000E+00  0.93827000000E+00 0. -1.
     999902    2    1    2    0    0  0.81992172632E-02  0.12923805464E-01  0.18087164482E-01  0.10202361732E+01  0.10199610049E+01 0.  0.
     999903    2    3    3    0    0  0.92765880001E-01 -0.47863009419E-01 -0.73948275943E-01  0.12932816466E+00  0.19001328813E-01 0.  0.
         14    1    1    2    0    0 -0.81992172632E-02 -0.12923805464E-01 -0.18087164482E-01  0.23693826842E-01  0.00000000000E+00 0.  1.
     999901    1    3    3    0    0 -0.84566662738E-01  0.60786814883E-01  0.92035440425E-01  0.89090800850E+00  0.88000000000E+00 0.  1.
        -11    1    4    4    0    0  0.69938074406E-01 -0.41619576904E-01 -0.64477238077E-01  0.10383207012E+00  0.51100000000E-03 0. -1.
         11    1    4    4    0    0  0.22827805595E-01 -0.62434325152E-02 -0.94710378656E-02  0.25496094546E-01  0.51100000000E-03 0.  1.
</event>
<event>
 8    1  0.1166736E+005  0.1043930E+01  0.7957747E-01            NaN
         13   -1    0    0    0    0  0.00000000000E+00  0.00000000000E+00  0.74505805969E-08  0.10566000000E+00  0.10566000000E+00 0.  1.
     999900   -1    0    0    0    0 -0.00000000000E+00 -0.00000000000E+00 -0.74505805969E-08  0.93827000000E+00  0.93827000000E+00 0.  1.
     999902    2    1    2    0    0  0.23350180271E-01  0.34714429580E-02 -0.36357540457E-02  0.10200448468E+01  0.10197651636E+01 0.  0.
     999903    2    3    3    0    0  0.13141108596E+00  0.46438571281E-02  0.94090640871E-02  0.13333818666E+00  0.20002565151E-01 0.  0.
         14    1    1    2    0    0 -0.23350180271E-01 -0.34714429580E-02  0.36357540457E-02  0.23885153179E-01  0.00000000000E+00 0.  1.
     999901    1    3    3    0    0 -0.10806090569E+00 -0.11724141701E-02 -0.13044818133E-01  0.88670666016E+00  0.88000000000E+00 0. -1.
        -11    1    4    4    0    0  0.50436375428E-01 -0.66940727773E-02 -0.11419171922E-02  0.50894043586E-01  0.51100000000E-03 0.  1.
         11    1    4    4    0    0  0.80974710532E-01  0.11337929905E-01  0.10550981279E-01  0.82444143075E-01  0.51100000000E-03 0. -1.
</event>
<event>
 8    1  0.1166736E+005  0.1043930E+01  0.7957747E-01            NaN
         13   -1    0    0    0    0  0.00000000000E+00  0.00000000000E+00  0.74505805969E-08  0.10566000000E+00  0.10566000000E+00 0.  1.
     999900   -1    0    0    0    0 -0.00000000000E+00 -0.00000000000E+00 -0.74505805969E-08  0.93827000000E+00  0.93827000000E+00 0.  1.
     999902    2    1    2    0    0  0.80098078236E-02 -0.97433156582E-02  0.20622454372E-01  0.10197561537E+01  0.10194695867E+01 0.  0.
     999903    2    3    3    0    0  0.39297600924E-02 -0.12726644880E+00  0.28421645968E-01  0.13189965571E+00  0.19430316816E-01 0.  0.
         14    1    1    2    0    0 -0.80098078236E-02  0.97433156582E-02 -0.20622454372E-01  0.24173846316E-01  0.00000000000E+00 0. -1.
     999901    1    3    3    0    0  0.40800477312E-02  0.11752313314E+00 -0.77991915963E-02  0.88785649798E+00  0.88000000000E+00 0.  1.
        -11    1    4    4    0    0  0.11631566462E-01 -0.62422300153E-01  0.13850505079E-01  0.64991803381E-01  0.51100000000E-03 0.  1.
         11    1    4    4    0    0 -0.77018063695E-02 -0.64844148646E-01  0.14571140889E-01  0.66907852325E-01  0.51100000000E-03 0. -1.
</event>
<event>
 8    1  0.1166736E+005  0.1043930E+01  0.7957747E-01            NaN
         13   -1    0    0    0    0  0.00000000000E+00  0.00000000000E+00  0.74505805969E-08  0.10566000000E+00  0.10566000000E+00 0.  1.
     999900   -1    0    0    0    0 -0.00000000000E+00 -0.00000000000E+00 -0.74505805969E-08  0.93827000000E+00  0.93827000000E+00 0.  1.
     999902    2    1    2    0    0  0.93429374481E-03 -0.17639745250E-01  0.14512805067E-01  0.10210683503E+01  0.10208123828E+01 0.  0.
     999903    2    3    3    0    0  0.12536081773E+00 -0.23468102830E-01  0.28405658714E-01  0.13218762655E+00  0.20015011749E-01 0.  0.
         14    1    1    2    0    0 -0.93429374481E-03  0.17639745250E-01 -0.14512805067E-01  0.22861649726E-01  0.00000000000E+00 0. -1.
     999901    1    3    3    0    0 -0.12442652398E+00  0.58283575809E-02 -0.13892853647E-01  0.88888072372E+00  0.88000000000E+00 0.  1.
        -11    1    4    4    0    0  0.22346274358E-01 -0.11719275472E-01  0.83391401443E-02  0.26580063480E-01  0.51100000000E-03 0. -1.
         11    1    4    4    0    0  0.10301454337E+00 -0.11748827358E-01  0.20066518570E-01  0.10560756307E+00  0.51100000000E-03 0.  1.
</event>
<event>
 8    1  0.1166736E+005  0.1043930E+01  0.7957747E-01            NaN
         13   -1    0    0    0    0  0.00000000000E+00  0.00000000000E+00  0.74505805969E-08  0.10566000000E+00  0.10566000000E+00 0.  1.
     999900   -1    0    0    0    0 -0.00000000000E+00 -0.00000000000E+00 -0.74505805969E-08  0.93827000000E+00  0.93827000000E+00 0. -1.
     999902    2    1    2    0    0 -0.10615149172E-01 -0.24616766123E-02  0.19293535188E-01  0.10217718921E+01  0.10215316039E+01 0.  0.
     999903    2    3    3    0    0 -0.12955467470E+00  0.12512024005E-01  0.22177557567E-01  0.13363950335E+00  0.20656919318E-01 0.  0.
         14    1    1    2    0    0  0.10615149172E-01  0.24616766123E-02 -0.19293535188E-01  0.22158107855E-01  0.00000000000E+00 0. -1.
     999901    1    3    3    0    0  0.11893952552E+00 -0.14973700617E-01 -0.28840223791E-02  0.88813238880E+00  0.88000000000E+00 0. -1.
        -11    1    4    4    0    0 -0.74960483375E-01  0.17414273153E-01  0.12068034890E-01  0.77898841868E-01  0.51100000000E-03 0. -1.
         11    1    4    4    0    0 -0.54594191320E-01 -0.49022491481E-02  0.10109522677E-01  0.55740661482E-01  0.51100000000E-03 0.  1.
</event>
<event>
 8    1  0.1166736E+005  0.1043930E+01  0.7957747E-01            NaN
         13   -1    0    0    0    0  0.00000000000E+00  0.00000000000E+00  0.74505805969E-08  0.10566000000E+00  0.10566000000E+00 0.  1.
     999900   -1    0    0    0    0 -0.00000000000E+00 -0.00000000000E+00 -0.74505805969E-08  0.93827000000E+00  0.93827000000E+00 0. -1.
     999902    2    1    2    0    0 -0.11174542689E-01  0.18198722418E-01  0.13622271310E-01  0.10185995800E+01  0.10182845743E+01 0.  0.
     999903    2    3    3    0    0  0.62086736456E-01 -0.72318629597E-01  0.83126498346E-01  0.12821121326E+00  0.21055959928E-01 0.  0.
         14    1    1    2    0    0  0.11174542689E-01 -0.18198722418E-01 -0.13622271310E-01  0.25330420004E-01  0.00000000000E+00 0. -1.
     999901    1    3    3    0    0 -0.73261279145E-01  0.90517352015E-01 -0.69504227036E-01  0.89038836673E+00  0.88000000000E+00 0. -1.
        -11    1    4    4    0    0  0.17030616576E-01 -0.26386583668E-01  0.39528943000E-01  0.50488534880E-01  0.51100000000E-03 0.  1.
         11    1    4    4    0    0  0.45056119880E-01 -0.45932045929E-01  0.43597555346E-01  0.77722678383E-01  0.51100000000E-03 0. -1.
</event>
<event>
 8    1  0.1166736E+005  0.1043930E+01  0.7957747E-01            NaN
         13   -1    0    0    0    0  0.00000000000E+00  0.00000000000E+00  0.74505805969E-08  0.10566000000E+00  0.10566000000E+00 0.  1.
     999900   -1    0    0    0    0 -0.00000000000E+00 -0.00000000000E+00 -0.74505805969E-08  0.93827000000E+00  0.93827000000E+00 0. -1.
     999902    2    1    2    0    0  0.16652195161E-01 -0.10330313200E-01 -0.13236684389E-01  0.10202821505E+01  0.10200080616E+01 0.  0.
     999903    2    3    3    0    0 -0.73670536768E-01 -0.40731403363E-01  0.95012793725E-01  0.12854206966E+00  0.20229619207E-01 0.  0.
         14    1    1    2    0    0 -0.16652195161E-01  0.10330313200E-01  0.13236684389E-01  0.23647849545E-01  0.00000000000E+00 0.  1.
     999901    1    3    3    0    0  0.90322731929E-01  0.30401090164E-01 -0.10824947811E+00  0.89174008080E+00  0.88000000000E+00 0. -1.
        -11    1    4    4    0    0 -0.22095780361E-01 -0.11026085710E-01  0.42559995271E-01  0.49207848910E-01  0.51100000000E-03 0. -1.
         11    1    4    4    0    0 -0.51574756406E-01 -0.29705317653E-01  0.52452798454E-01  0.79334220749E-01  0.51100000000E-03 0.  1.
</event>
<event>
 8    1  0.1166736E+005  0.1043930E+01  0.7957747E-01            NaN
         13   -1    0    0    0    0  0.00000000000E+00  0.00000000000E+00  0.74505805969E-08  0.10566000000E+00  0.10566000000E+00 0.  1.
     999900   -1    0    0    0    0 -0.00000000000E+00 -0.00000000000E+00 -0.74505805969E-08  0.93827000000E+00  0.93827000000E+00 0. -1.
     999902    2    1    2    0    0 -0.10282010693E-01  0.21426834514E-01  0.18269960997E-02  0.10200937483E+01  0.10198152227E+01 0.  0.
     999903    2    3    3    0    0 -0.71586914018E-01  0.60335673826E-01  0.91499737781E-01  0.13256155757E+00  0.20863478549E-01 0.  0.
         14    1    1    2    0    0  0.10282010693E-01 -0.21426834514E-01 -0.18269960997E-02  0.23836251717E-01  0.00000000000E+00 0. -1.
     999901    1    3    3    0    0  0.61304903325E-01 -0.38908839313E-01 -0.89672741681E-01  0.88753219071E+00  0.88000000000E+00 0. -1.
        -11    1    4    4    0    0 -0.47035691358E-01  0.47664573221E-01  0.74243195585E-01  0.99982903606E-01  0.51100000000E-03 0.  1.
         11    1    4    4    0    0 -0.24551222660E-01  0.12671100606E-01  0.17256542196E-01  0.32578653966E-01  0.51100000000E-03 0. -1.
</event>
<event>
 8    1  0.1166736E+005  0.1043930E+01  0.7957747E-01            NaN
         13   -1    0    0    0    0  0.00000000000E+00  0.00000000000E+00  0.74505805969E-08  0.10566000000E+00  0.10566000000E+00 0.  1.
     999900   -1    0    0    0    0 -0.00000000000E+00 -0.00000000000E+00 -0.74505805969E-08  0.93827000000E+00  0.93827000000E+00 0.  1.
     999902    2    1    2    0    0  0.26172031425E-02 -0.22547423956E-01 -0.50123854882E-02  0.10206843534E+01  0.10204196142E+01 0.  0.
     999903    2    3    3    0    0  0.77177268373E-01 -0.64302721519E-02  0.10342230636E+00  0.13075343003E+00  0.20065065602E-01 0.  0.
         14    1    1    2    0    0 -0.26172031425E-02  0.22547423956E-01  0.50123854882E-02  0.23245646638E-01  0.00000000000E+00 0.  1.
     999901    1    3    3    0    0 -0.74560065230E-01 -0.16117151804E-01 -0.10843469185E+00  0.88993092333E+00  0.88000000000E+00 0.  1.
        -11    1    4    4    0    0  0.77487417847E-01 -0.79583470250E-02  0.98588168949E-01  0.12564841181E+00  0.51100000000E-03 0.  1.
         11    1    4    4    0    0 -0.31014947447E-03  0.15280748731E-02  0.48341374121E-02  0.51050182206E-02  0.51100000000E-03 0. -1.
</event>
<event>
 8    1  0.1166736E+005  0.1043930E+01  0.7957747E-01            NaN
         13   -1    0    0    0    0  0.00000000000E+00  0.00000000000E+00  0.74505805969E-08  0.10566000000E+00  0.10566000000E+00 0.  1.
     999900   -1    0    0    0    0 -0.00000000000E+00 -0.00000000000E+00 -0.74505805969E-08  0.93827000000E+00  0.93827000000E+00 0. -1.
     999902    2    1    2    0    0  0.85379694218E-02  0.74112607715E-04  0.17129319129E-01  0.10247906168E+01  0.10246118740E+01 0.  0.
     999903    2    3    3    0    0 -0.74887371955E-01  0.98511552226E-01 -0.44542048128E-01  0.13324528727E+00  0.21393179495E-01 0.  0.
         14    1    1    2    0    0 -0.85379694218E-02 -0.74112607715E-04 -0.17129319129E-01  0.19139383176E-01  0.00000000000E+00 0. -1.
     999901    1    3    3    0    0  0.83425341377E-01 -0.98437439618E-01  0.61671367258E-01  0.89154532955E+00  0.88000000000E+00 0.  1.
        -11    1    4    4    0    0 -0.28307369916E-01  0.38280858014E-01 -0.28303948838E-01  0.55390485849E-01  0.51100000000E-03 0. -1.
         11    1    4    4    0    0 -0.46580002039E-01  0.60230694212E-01 -0.16238099290E-01  0.77854801425E-01  0.51100000000E-03 0.  1.
</event>
<event>
 8    1  0.1166736E+005  0.1043930E+01  0.7957747E-01            NaN
         13   -1    0    0    0    0  0.00000000000E+00  0.00000000000E+00  0.74505805969E-08  0.10566000000E+00  0.10566000000E+00 0. -1.
     999900   -1    0    0    0    0 -0.00000000000E+00 -0.00000000000E+00 -0.74505805969E-08  0.93827000000E+00  0.93827000000E+00 0. -1.
     999902    2    1    2    0    0 -0.21102565718E-01 -0.45515357296E-02  0.54739224506E-02  0.10216589743E+01  0.10214162037E+01 0.  0.
     999903    2    3    3    0    0  0.93316781048E-02 -0.10875832968E+00 -0.70924790909E-01  0.13170276052E+00  0.19995916383E-01 0.  0.
         14    1    1    2    0    0  0.21102565718E-01  0.45515357296E-02 -0.54739224506E-02  0.22271025670E-01  0.00000000000E+00 0.  1.
     999901    1    3    3    0    0 -0.30434243823E-01  0.10420679395E+00  0.76398713360E-01  0.88995621381E+00  0.88000000000E+00 0.  1.
        -11    1    4    4    0    0  0.10473291382E-01 -0.51822829287E-01 -0.24715855971E-01  0.58364630771E-01  0.51100000000E-03 0. -1.
         11    1    4    4    0    0 -0.11416132776E-02 -0.56935500390E-01 -0.46208934938E-01  0.73338129746E-01  0.51100000000E-03 0.  1.
</event>
<event>
 8    1  0.1166736E+005  0.1043930E+01  0.7957747E-01            NaN
         13   -1    0    0    0    0  0.00000000000E+00  0.00000000000E+00  0.74505805969E-08  0.10566000000E+00  0.10566000000E+00 0.  1.
     999900   -1    0    0    0    0 -0.00000000000E+00 -0.00000000000E+00 -0.74505805969E-08  0.93827000000E+00  0.93827000000E+00 0.  1.
     999902    2    1    2    0    0 -0.62949896285E-02 -0.20041097007E-01 -0.16836770748E-01  0.10170088315E+01  0.10166524549E+01 0.  0.
     999903    2    3    3    0    0 -0.28292571138E-01  0.17706842180E-01  0.11889699281E+00  0.12553115087E+00  0.22529383014E-01 0.  0.
         14    1    1    2    0    0  0.62949896285E-02  0.20041097007E-01  0.16836770748E-01  0.26921168491E-01  0.00000000000E+00 0.  1.
     999901    1    3    3    0    0  0.21997581509E-01 -0.37747939187E-01 -0.13573376356E+00  0.89147768064E+00  0.88000000000E+00 0.  1.
        -11    1    4    4    0    0 -0.18138780171E-01  0.21816043569E-01  0.96632396891E-01  0.10071264247E+00  0.51100000000E-03 0. -1.
         11    1    4    4    0    0 -0.10153790966E-01 -0.41092013888E-02  0.22264595917E-01  0.24818508403E-01  0.51100000000E-03 0.  1.
</event>
<event>
 8    1  0.1166736E+005  0.1043930E+01  0.7957747E-01            NaN
         13   -1    0    0    0    0  0.00000000000E+00  0.00000000000E+00  0.74505805969E-08  0.10566000000E+00  0.10566000000E+00 0.  1.
     999900   -1    0    0    0    0 -0.00000000000E+00 -0.00000000000E+00 -0.74505805969E-08  0.93827000000E+00  0.93827000000E+00 0. -1.
     999902    2    1    2    0    0  0.63750909549E-03  0.40709843370E-02 -0.25937935610E-01  0.10176667969E+01  0.10173278497E+01 0.  0.
     999903    2    3    3    0    0  0.31468401348E-01  0.42259734326E-01  0.11209688375E+00  0.12555551694E+00  0.20550694891E-01 0.  0.
         14    1    1    2    0    0 -0.63750909549E-03 -0.40709843370E-02  0.25937935610E-01  0.26263203061E-01  0.00000000000E+00 0.  1.
     999901    1    3    3    0    0 -0.30830892253E-01 -0.38188749989E-01 -0.13803481936E+00  0.89211128000E+00  0.88000000000E+00 0. -1.
        -11    1    4    4    0    0  0.21432897315E-01  0.26675399111E-01  0.92253158640E-01  0.98396404432E-01  0.51100000000E-03 0. -1.
         11    1    4    4    0    0  0.10035504033E-01  0.15584335216E-01  0.19843725106E-01  0.27159112511E-01  0.51100000000E-03 0.  1.
</event>
<event>
 8    1  0.1166736E+005  0.1043930E+01  0.7957747E-01            NaN
         13   -1    0    0    0    0  0.00000000000E+00  0.00000000000E+00  0.74505805969E-08  0.10566000000E+00  0.10566000000E+00 0.  1.
     999900   -1    0    0    0    0 -0.00000000000E+00 -0.00000000000E+00 -0.74505805969E-08  0.93827000000E+00  0.93827000000E+00 0.  1.
     999902    2    1    2    0    0  0.82988876279E-02 -0.18300556098E-01  0.12548938359E-01  0.10202391211E+01  0.10199640221E+01 0.  0.
     999903    2    3    3    0    0  0.86293793353E-01 -0.79685948835E-01 -0.56824553389E-01  0.13194634666E+00  0.19604573845E-01 0.  0.
         14    1    1    2    0    0 -0.82988876279E-02  0.18300556098E-01 -0.12548938359E-01  0.23690878905E-01  0.00000000000E+00 0. -1.
     999901    1    3    3    0    0 -0.77994905725E-01  0.61385392737E-01  0.69373491748E-01  0.88829277444E+00  0.88000000000E+00 0. -1.
        -11    1    4    4    0    0  0.26853135575E-01 -0.16450601885E-01 -0.22068126203E-01  0.38457463615E-01  0.51100000000E-03 0.  1.
         11    1    4    4    0    0  0.59440657778E-01 -0.63235346949E-01 -0.34756427186E-01  0.93488883043E-01  0.51100000000E-03 0. -1.
</event>
<event>
 8    1  0.1166736E+005  0.1043930E+01  0.7957747E-01            NaN
         13   -1    0    0    0    0  0.00000000000E+00  0.00000000000E+00  0.74505805969E-08  0.10566000000E+00  0.10566000000E+00 0. -1.
     999900   -1    0    0    0    0 -0.00000000000E+00 -0.00000000000E+00 -0.74505805969E-08  0.93827000000E+00  0.93827000000E+00 0.  1.
     999902    2    1    2    0    0  0.10740150433E-01 -0.15536926853E-01  0.14425311825E-01  0.10201637098E+01  0.10198868360E+01 0.  0.
     999903    2    3    3    0    0  0.72385233589E-01  0.51605829133E-01 -0.91603498830E-01  0.12912477990E+00  0.19473678227E-01 0.  0.
         14    1    1    2    0    0 -0.10740150433E-01  0.15536926853E-01 -0.14425311825E-01  0.23766290173E-01  0.00000000000E+00 0.  1.
     999901    1    3    3    0    0 -0.61645083156E-01 -0.67142755986E-01  0.10602881066E+00  0.89103892993E+00  0.88000000000E+00 0. -1.
        -11    1    4    4    0    0  0.15217806906E-01  0.10498382782E-01 -0.31588431664E-01  0.36604478197E-01  0.51100000000E-03 0.  1.
         11    1    4    4    0    0  0.57167426683E-01  0.41107446351E-01 -0.60015067166E-01  0.92520301702E-01  0.51100000000E-03 0. -1.
</event>
<event>
 8    1  0.1166736E+005  0.1043930E+01  0.7957747E-01            NaN
         13   -1    0    0    0    0  0.00000000000E+00  0.00000000000E+00  0.74505805969E-08  0.10566000000E+00  0.10566000000E+00 0.  1.
     999900   -1    0    0    0    0 -0.00000000000E+00 -0.00000000000E+00 -0.74505805969E-08  0.93827000000E+00  0.93827000000E+00 0.  1.
     999902    2    1    2    0    0 -0.18306039958E-01  0.13683999003E-01  0.92487617680E-02  0.10192743207E+01  0.10189760735E+01 0.  0.
     999903    2    3    3    0    0  0.96416958099E-01  0.29049151221E-02 -0.80604795449E-01  0.12722543376E+00  0.19608916500E-01 0.  0.
         14    1    1    2    0    0  0.18306039958E-01 -0.13683999003E-01 -0.92487617680E-02  0.24655679303E-01  0.00000000000E+00 0. -1.
     999901    1    3    3    0    0 -0.11472299806E+00  0.10779083881E-01  0.89853557217E-01  0.89204888693E+00  0.88000000000E+00 0. -1.
        -11    1    4    4    0    0  0.49974663994E-01  0.85161271799E-02 -0.50713756177E-01  0.71708699961E-01  0.51100000000E-03 0.  1.
         11    1    4    4    0    0  0.46442294106E-01 -0.56112120578E-02 -0.29891039272E-01  0.55516733804E-01  0.51100000000E-03 0. -1.
</event>
<event>
 8    1  0.1166736E+005  0.1043930E+01  0.7957747E-01            NaN
         13   -1    0    0    0    0  0.00000000000E+00  0.00000000000E+00  0.74505805969E-08  0.10566000000E+00  0.10566000000E+00 0. -1.
     999900   -1    0    0    0    0 -0.00000000000E+00 -0.00000000000E+00 -0.74505805969E-08  0.93827000000E+00  0.93827000000E+00 0. -1.
     999902    2    1    2    0    0  0.20021984089E-01 -0.76485041395E-03  0.12110665789E-01  0.10205177581E+01  0.10202491664E+01 0.  0.
     999903    2    3    3    0    0 -0.11162825853E+00  0.26452073795E-01  0.56546257563E-01  0.12920015528E+00  0.18292637038E-01 0.  0.
         14    1    1    2    0    0 -0.20021984089E-01  0.76485041395E-03 -0.12110665789E-01  0.23412241860E-01  0.00000000000E+00 0.  1.
     999901    1    3    3    0    0  0.13165024262E+00 -0.27216924209E-01 -0.44435591774E-01  0.89131760286E+00  0.88000000000E+00 0. -1.
        -11    1    4    4    0    0 -0.90870408075E-01  0.19204508541E-01  0.52959764674E-01  0.10691698652E+00  0.51100000000E-03 0. -1.
         11    1    4    4    0    0 -0.20757850457E-01  0.72475652536E-02  0.35864928891E-02  0.22283168759E-01  0.51100000000E-03 0.  1.
</event>
<event>
 8    1  0.1166736E+005  0.1043930E+01  0.7957747E-01            NaN
         13   -1    0    0    0    0  0.00000000000E+00  0.00000000000E+00  0.74505805969E-08  0.10566000000E+00  0.10566000000E+00 0.  1.
     999900   -1    0    0    0    0 -0.00000000000E+00 -0.00000000000E+00 -0.74505805969E-08  0.93827000000E+00  0.93827000000E+00 0.  1.
     999902    2    1    2    0    0  0.20311552254E-01  0.75084345619E-02 -0.74503287060E-02  0.10210292764E+01  0.10207724233E+01 0.  0.
     999903    2    3    3    0    0 -0.24356677188E-01 -0.43100709276E-01 -0.11960638946E+00  0.13134645755E+00  0.22254991492E-01 0.  0.
         14    1    1    2    0    0 -0.20311552254E-01 -0.75084345619E-02  0.74503287060E-02  0.22900723621E-01  0.00000000000E+00 0.  1.
     999901    1    3    3    0    0  0.44668229442E-01  0.50609143838E-01  0.11215606076E+00  0.88968281883E+00  0.88000000000E+00 0. -1.
        -11    1    4    4    0    0 -0.65781412434E-02 -0.53615819353E-02 -0.45641694438E-01  0.46426758397E-01  0.51100000000E-03 0. -1.
         11    1    4    4    0    0 -0.17778535945E-01 -0.37739127341E-01 -0.73964695023E-01  0.84919699150E-01  0.51100000000E-03 0.  1.
</event>
<event>
 7    1  0.1321991E+005  0.1043930E+01  0.7957747E-01            NaN
         13   -1    0    0    0    0  0.00000000000E+00  0.00000000000E+00  0.74505805969E-08  0.10566000000E+00  0.10566000000E+00 0. -1.
     999900   -1    0    0    0    0 -0.00000000000E+00 -0.00000000000E+00 -0.74505805969E-08  0.93827000000E+00  0.93827000000E+00 0. -1.
     999902    2    1    2    0    0  0.11708832498E-01 -0.19750373838E-01  0.17701449871E-02  0.10209015950E+01  0.10206418369E+01 0.  0.
         14    1    1    2    0    0 -0.11708832498E-01  0.19750373838E-01 -0.17701449871E-02  0.23028405036E-01  0.00000000000E+00 0.  1.
     999901    1    3    3    0    0 -0.97689843014E-01 -0.23096002932E-01 -0.72358463511E-01  0.88865768326E+00  0.88000000000E+00 0. -1.
        -11    1    3    3    0    0  0.56595540928E-01  0.22582389907E-02  0.40447020399E-01  0.69601562313E-01  0.51100000000E-03 0. -1.
         11    1    3    3    0    0  0.52803134583E-01  0.10873901037E-02  0.33681588099E-01  0.62642349389E-01  0.51100000000E-03 0.  1.
</event>
<event>
 8    1  0.1166736E+005  0.1043930E+01  0.7957747E-01            NaN
         13   -1    0    0    0    0  0.00000000000E+00  0.00000000000E+00  0.74505805969E-08  0.10566000000E+00  0.10566000000E+00 0. -1.
     999900   -1    0    0    0    0 -0.00000000000E+00 -0.00000000000E+00 -0.74505805969E-08  0.93827000000E+00  0.93827000000E+00 0.  1.
     999902    2    1    2    0    0  0.25170744824E-02 -0.22459752899E-01  0.83727958675E-02  0.10198285504E+01  0.10195437177E+01 0.  0.
     999903    2    3    3    0    0 -0.32877529880E-01 -0.37670765573E-01 -0.11789153898E+00  0.12998202697E+00  0.22291115321E-01 0.  0.
         14    1    1    2    0    0 -0.25170744824E-02  0.22459752899E-01 -0.83727958675E-02  0.24101449642E-01  0.00000000000E+00 0.  1.
     999901    1    3    3    0    0  0.35394604363E-01  0.15211012674E-01  0.12626433485E+00  0.88984652338E+00  0.88000000000E+00 0. -1.
        -11    1    4    4    0    0 -0.31157626111E-03  0.23012052719E-02 -0.11642610256E-01  0.11882933983E-01  0.51100000000E-03 0.  1.
         11    1    4    4    0    0 -0.32565953619E-01 -0.39971970845E-01 -0.10624892873E+00  0.11809909299E+00  0.51100000000E-03 0. -1.
</event>
<event>
 8    1  0.1166736E+005  0.1043930E+01  0.7957747E-01            NaN
         13   -1    0    0    0    0  0.00000000000E+00  0.00000000000E+00  0.74505805969E-08  0.10566000000E+00  0.10566000000E+00 0. -1.
     999900   -1    0    0    0    0 -0.00000000000E+00 -0.00000000000E+00 -0.74505805969E-08  0.93827000000E+00  0.93827000000E+00 0. -1.
     999902    2    1    2    0    0 -0.33241137247E-03 -0.21246057427E-01  0.13651434753E-01  0.10186739686E+01  0.10183608334E+01 0.  0.
     999903    2    3    3    0    0  0.36087305946E-01 -0.11508899126E+00 -0.46447470167E-01  0.13089878845E+00  0.20720901859E-01 0.  0.
         14    1    1    2    0    0  0.33241137247E-03  0.21246057427E-01 -0.13651434753E-01  0.25256031445E-01  0.00000000000E+00 0.  1.
     999901    1    3    3    0    0 -0.36419717318E-01  0.93842933830E-01  0.60098904920E-01  0.88777518011E+00  0.88000000000E+00 0.  1.
        -11    1    4    4    0    0  0.35502955282E-02 -0.30490673787E-01 -0.45255896250E-02  0.31032690325E-01  0.51100000000E-03 0.  1.
         11    1    4    4    0    0  0.32537010418E-01 -0.84598317469E-01 -0.41921880542E-01  0.99866098125E-01  0.51100000000E-03 0. -1.
</event>
<event>
 8    1  0.1166736E+005  0.1043930E+01  0.7957747E-01            NaN
         13   -1    0    0    0    0  0.00000000000E+00  0.00000000000E+00  0.74505805969E-08  0.10566000000E+00  0.10566000000E+00 0.  1.
     999900   -1    0    0    0    0 -0.00000000000E+00 -0.00000000000E+00 -0.74505805969E-08  0.93827000000E+00  0.93827000000E+00 0.  1.
     999902    2    1    2    0    0  0.45134374540E-02 -0.22877797609E-01  0.68670630480E-02  0.10196211272E+01  0.10193313111E+01 0.  0.
     999903    2    3    3    0    0 -0.10089424697E-01 -0.82520054358E-01  0.10118347530E+00  0.13245370897E+00  0.19862866982E-01 0.  0.
         14    1    1    2    0    0 -0.45134374540E-02  0.22877797609E-01 -0.68670630480E-02  0.24308872783E-01  0.00000000000E+00 0. -1.
     999901    1    3    3    0    0  0.14602862151E-01  0.59642256749E-01 -0.94316412253E-01  0.88716741824E+00  0.88000000000E+00 0.  1.
        -11    1    4    4    0    0 -0.98979666383E-03 -0.65502567603E-01  0.70830806374E-01  0.96482279786E-01  0.51100000000E-03 0.  1.
         11    1    4    4    0    0 -0.90996280330E-02 -0.17017486755E-01  0.30352668926E-01  0.35971429187E-01  0.51100000000E-03 0. -1.
</event>
<event>
 8    1  0.1166736E+005  0.1043930E+01  0.7957747E-01            NaN
         13   -1    0    0    0    0  0.00000000000E+00  0.00000000000E+00  0.74505805969E-08  0.10566000000E+00  0.10566000000E+00 0.  1.
     999900   -1    0    0    0    0 -0.00000000000E+00 -0.00000000000E+00 -0.74505805969E-08  0.93827000000E+00  0.93827000000E+00 0.  1.
     999902    2    1    2    0    0 -0.15733793675E-01  0.17375519854E-01 -0.60288162952E-02  0.10197265379E+01  0.10194392598E+01 0.  0.
     999903    2    3    3    0    0 -0.11936885754E+00 -0.38860185780E-01  0.31899668902E-01  0.13105266571E+00  0.19954300920E-01 0.  0.
         14    1    1    2    0    0  0.15733793675E-01 -0.17375519854E-01  0.60288162952E-02  0.24203462140E-01  0.00000000000E+00 0.  1.
     999901    1    3    3    0    0  0.10363506386E+00  0.56235705634E-01 -0.37928485197E-01  0.88867387215E+00  0.88000000000E+00 0.  1.
        -11    1    4    4    0    0 -0.60503637955E-01 -0.28719034102E-01  0.11664303526E-01  0.67983749700E-01  0.51100000000E-03 0.  1.
         11    1    4    4    0    0 -0.58865219584E-01 -0.10141151678E-01  0.20235365375E-01  0.63068916012E-01  0.51100000000E-03 0. -1.
</event>
<event>
 8    1  0.1166736E+005  0.1043930E+01  0.7957747E-01            NaN
         13   -1    0    0    0    0  0.00000000000E+00  0.00000000000E+00  0.74505805969E-08  0.10566000000E+00  0.10566000000E+00 0.  1.
     999900   -1    0    0    0    0 -0.00000000000E+00 -0.00000000000E+00 -0.74505805969E-08  0.93827000000E+00  0.93827000000E+00 0. -1.
     999902    2    1    2    0    0  0.14942656000E-02 -0.64041216648E-02  0.22635808938E-01  0.10203582913E+01  0.10200859852E+01 0.  0.
     999903    2    3    3    0    0  0.53111481741E-01 -0.11600232625E+00 -0.21833062892E-01  0.13094635975E+00  0.19821637395E-01 0.  0.
         14    1    1    2    0    0 -0.14942656000E-02  0.64041216648E-02 -0.22635808938E-01  0.23571708683E-01  0.00000000000E+00 0. -1.
     999901    1    3    3    0    0 -0.51617216141E-01  0.10959820458E+00  0.44468871829E-01  0.88941193157E+00  0.88000000000E+00 0. -1.
        -11    1    4    4    0    0  0.29044355496E-01 -0.67423567553E-01 -0.27387723255E-02  0.73466142151E-01  0.51100000000E-03 0. -1.
         11    1    4    4    0    0  0.24067126244E-01 -0.48578758695E-01 -0.19094290566E-01  0.57480217599E-01  0.51100000000E-03 0.  1.
</event>
<event>
 8    1  0.1166736E+005  0.1043930E+01  0.7957747E-01            NaN
         13   -1    0    0    0    0  0.00000000000E+00  0.00000000000E+00  0.74505805969E-08  0.10566000000E+00  0.10566000000E+00 0. -1.
     999900   -1    0    0    0    0 -0.00000000000E+00 -0.00000000000E+00 -0.74505805969E-08  0.93827000000E+00  0.93827000000E+00 0.  1.
     999902    2    1    2    0    0 -0.55480145121E-02 -0.12239456162E-01 -0.18116802748E-01  0.10213733315E+01  0.10211242231E+01 0.  0.
     999903    2    3    3    0    0 -0.78812134864E-01  0.80523591086E-01  0.61010486016E-01  0.12995101739E+00  0.21669937534E-01 0.  0.
         14    1    1    2    0    0  0.55480145121E-02  0.12239456162E-01  0.18116802748E-01  0.22556668503E-01  0.00000000000E+00 0. -1.
     999901    1    3    3    0    0  0.73264120352E-01 -0.92763047248E-01 -0.79127288764E-01  0.89142231411E+00  0.88000000000E+00 0.  1.
        -11    1    4    4    0    0 -0.58218180078E-01  0.71098248602E-01  0.45900858038E-01  0.10272033555E+00  0.51100000000E-03 0.  1.
         11    1    4    4    0    0 -0.20593954786E-01  0.94253424845E-02  0.15109627978E-01  0.27230681837E-01  0.51100000000E-03 0. -1.
</event>
<event>
 7    1  0.1166736E+005  0.1043930E+01  0.7957747E-01            NaN
         13   -1    0    0    0    0  0.00000000000E+00  0.00000000000E+00  0.74505805969E-08  0.10566000000E+00  0.10566000000E+00 0. -1.
     999900   -1    0    0    0    0 -0.00000000000E+00 -0.00000000000E+00 -0.74505805969E-08  0.93827000000E+00  0.93827000000E+00 0.  1.
     999903    2    1    2    0    0  0.89086017298E-01  0.27975944294E-01 -0.59211546791E-01  0.11232371059E+00  0.19789814300E-01 0.  0.
         14    1    1    2    0    0  0.15494276177E-01  0.24420458894E-01 -0.27159392949E-01  0.39674475828E-01  0.00000000000E+00 0.  1.
     999901    1    1    2    0    0 -0.10458029347E+00 -0.52396403188E-01  0.86370939740E-01  0.89193181358E+00  0.88000000000E+00 0. -1.
        -11    1    3    3    0    0  0.46882050924E-01  0.76227952123E-02 -0.38269235045E-01  0.60998599800E-01  0.51100000000E-03 0.  1.
         11    1    3    3    0    0  0.42203966374E-01  0.20353149082E-01 -0.20942311746E-01  0.51325110789E-01  0.51100000000E-03 0. -1.
</event>
<event>
 8    1  0.1166736E+005  0.1043930E+01  0.7957747E-01            NaN
         13   -1    0    0    0    0  0.00000000000E+00  0.00000000000E+00  0.74505805969E-08  0.10566000000E+00  0.10566000000E+00 0.  1.
     999900   -1    0    0    0    0 -0.00000000000E+00 -0.00000000000E+00 -0.74505805969E-08  0.93827000000E+00  0.93827000000E+00 0. -1.
     999902    2    1    2    0    0 -0.69812357397E-03  0.16393428227E-01  0.15381377082E-01  0.10214395881E+01  0.10211919573E+01 0.  0.
     999903    2    3    3    0    0 -0.34597937275E-01  0.10709468368E+00 -0.66807121242E-01  0.13232156200E+00  0.19481164927E-01 0.  0.
         14    1    1    2    0    0  0.69812357397E-03 -0.16393428227E-01 -0.15381377082E-01  0.22490411879E-01  0.00000000000E+00 0. -1.
     999901    1    3    3    0    0  0.33899813701E-01 -0.90701255451E-01  0.82188498323E-01  0.88911802612E+00  0.88000000000E+00 0.  1.
        -11    1    4    4    0    0 -0.19196228578E-01  0.60698150858E-01 -0.48826092025E-01  0.80230973400E-01  0.51100000000E-03 0.  1.
         11    1    4    4    0    0 -0.15401708696E-01  0.46396532820E-01 -0.17981029216E-01  0.52090588604E-01  0.51100000000E-03 0. -1.
</event>
<event>
 8    1  0.1166736E+005  0.1043930E+01  0.7957747E-01            NaN
         13   -1    0    0    0    0  0.00000000000E+00  0.00000000000E+00  0.74505805969E-08  0.10566000000E+00  0.10566000000E+00 0.  1.
     999900   -1    0    0    0    0 -0.00000000000E+00 -0.00000000000E+00 -0.74505805969E-08  0.93827000000E+00  0.93827000000E+00 0.  1.
     999902    2    1    2    0    0 -0.44815627080E-02 -0.57763387520E-02 -0.22520456142E-01  0.10202525542E+01  0.10199777708E+01 0.  0.
     999903    2    3    3    0    0 -0.15904581189E-01  0.10084249999E+00  0.75140265606E-01  0.12838054620E+00  0.20330755522E-01 0.  0.
         14    1    1    2    0    0  0.44815627080E-02  0.57763387520E-02  0.22520456142E-01  0.23677445777E-01  0.00000000000E+00 0.  1.
     999901    1    3    3    0    0  0.11423018481E-01 -0.10661883874E+00 -0.97660721748E-01  0.89187200802E+00  0.88000000000E+00 0.  1.
        -11    1    4    4    0    0  0.61379288953E-03  0.16756901836E-01  0.21546950432E-01  0.27307557467E-01  0.51100000000E-03 0. -1.
         11    1    4    4    0    0 -0.16518374079E-01  0.84085598153E-01  0.53593315174E-01  0.10107298873E+00  0.51100000000E-03 0.  1.
</event>
<event>
 8    1  0.1166736E+005  0.1043930E+01  0.7957747E-01            NaN
         13   -1    0    0    0    0  0.00000000000E+00  0.00000000000E+00  0.74505805969E-08  0.10566000000E+00  0.10566000000E+00 0. -1.
     999900   -1    0    0    0    0 -0.00000000000E+00 -0.00000000000E+00 -0.74505805969E-08  0.93827000000E+00  0.93827000000E+00 0. -1.
     999902    2    1    2    0    0 -0.35367277713E-02 -0.16953853561E-01  0.17289449692E-01  0.10194582476E+01  0.10191644872E+01 0.  0.
     999903    2    3    3    0    0  0.36030045808E-02  0.12834346618E-01  0.12966031136E+00  0.13178402630E+00  0.19430160870E-01 0.  0.
         14    1    1    2    0    0  0.35367277713E-02  0.16953853561E-01 -0.17289449692E-01  0.24471752380E-01  0.00000000000E+00 0. -1.
     999901    1    3    3    0    0 -0.71397323520E-02 -0.29788200179E-01 -0.11237086166E+00  0.88767422132E+00  0.88000000000E+00 0. -1.
        -11    1    4    4    0    0  0.11433155763E-01  0.77590510654E-02  0.88698359911E-01  0.89769594497E-01  0.51100000000E-03 0.  1.
         11    1    4    4    0    0 -0.78301511827E-02  0.50752955526E-02  0.40961951444E-01  0.42014431801E-01  0.51100000000E-03 0. -1.
</event>
<event>
 8    1  0.1166736E+005  0.1043930E+01  0.7957747E-01            NaN
         13   -1    0    0    0    0  0.00000000000E+00  0.00000000000E+00  0.74505805969E-08  0.10566000000E+00  0.10566000000E+00 0. -1.
     999900   -1    0    0    0    0 -0.00000000000E+00 -0.00000000000E+00 -0.74505805969E-08  0.93827000000E+00  0.93827000000E+00 0. -1.
     999902    2    1    2    0    0 -0.15732295997E-01 -0.16662562193E-01  0.14870019206E-02  0.10209657388E+01  0.10207074422E+01 0.  0.
     999903    2    3    3    0    0 -0.12132153178E+00 -0.17380822237E-01  0.48862389022E-01  0.13338811974E+00  0.19592099739E-01 0.  0.
         14    1    1    2    0    0  0.15732295997E-01  0.16662562193E-01 -0.14870019206E-02  0.22964261166E-01  0.00000000000E+00 0.  1.
     999901    1    3    3    0    0  0.10558923578E+00  0.71826004434E-03 -0.47375387102E-01  0.88757761909E+00  0.88000000000E+00 0. -1.
        -11    1    4    4    0    0 -0.10713045864E+00 -0.15182626630E-01  0.35805339331E-01  0.11397250004E+00  0.51100000000E-03 0.  1.
         11    1    4    4    0    0 -0.14191073144E-01 -0.21981956067E-02  0.13057049691E-01  0.19415619706E-01  0.51100000000E-03 0. -1.
</event>
<event>
 8    1  0.1166736E+005  0.1043930E+01  0.7957747E-01            NaN
         13   -1    0    0    0    0  0.00000000000E+00  0.00000000000E+00  0.74505805969E-08  0.10566000000E+00  0.10566000000E+00 0.  1.
     999900   -1    0    0    0    0 -0.00000000000E+00 -0.00000000000E+00 -0.74505805969E-08  0.93827000000E+00  0.93827000000E+00 0. -1.
     999902    2    1    2    0    0 -0.21222119572E-01 -0.83512857024E-02 -0.51698973409E-02  0.10205451722E+01  0.10202772164E+01 0.  0.
     999903    2    3    3    0    0 -0.82642069746E-02  0.15818195875E-01 -0.12893780999E+00  0.13146105497E+00  0.18399393788E-01 0.  0.
         14    1    1    2    0    0  0.21222119572E-01  0.83512857024E-02  0.51698973409E-02  0.23384827785E-01  0.00000000000E+00 0. -1.
     999901    1    3    3    0    0 -0.12957912598E-01 -0.24169481577E-01  0.12376791265E+00  0.88908411725E+00  0.88000000000E+00 0.  1.
        -11    1    4    4    0    0 -0.57303705052E-02  0.44291305708E-02 -0.12628619873E-01  0.14567000537E-01  0.51100000000E-03 0.  1.
         11    1    4    4    0    0 -0.25338364693E-02  0.11389065304E-01 -0.11630919011E+00  0.11689405443E+00  0.51100000000E-03 0. -1.
</event>
<event>
 8    1  0.1166736E+005  0.1043930E+01  0.7957747E-01            NaN
         13   -1    0    0    0    0  0.00000000000E+00  0.00000000000E+00  0.74505805969E-08  0.10566000000E+00  0.10566000000E+00 0. -1.
     999900   -1    0    0    0    0 -0.00000000000E+00 -0.00000000000E+00 -0.74505805969E-08  0.93827000000E+00  0.93827000000E+00 0.  1.
     999902    2    1    2    0    0 -0.15018162762E-01 -0.11430290795E-01  0.16981763507E-01  0.10185414779E+01  0.10182250072E+01 0.  0.
     999903    2    3    3    0    0  0.11284205117E+00  0.52555077558E-01 -0.11171442374E-01  0.12655775350E+00  0.19917307952E-01 0.  0.
         14    1    1    2    0    0  0.15018162762E-01  0.11430290795E-01 -0.16981763507E-01  0.25388522056E-01  0.00000000000E+00 0.  1.
     999901    1    3    3    0    0 -0.12786021394E+00 -0.63985368353E-01  0.28153205880E-01  0.89198372444E+00  0.88000000000E+00 0. -1.
        -11    1    4    4    0    0  0.28239586197E-01  0.17764893627E-01  0.47556145128E-02  0.33703748524E-01  0.51100000000E-03 0.  1.
         11    1    4    4    0    0  0.84602464977E-01  0.34790183931E-01 -0.15927056886E-01  0.92854004976E-01  0.51100000000E-03 0. -1.
</event>
<event>
 8    1  0.1166736E+005  0.1043930E+01  0.7957747E-01            NaN
         13   -1    0    0    0    0  0.00000000000E+00  0.00000000000E+00  0.74505805969E-08  0.10566000000E+00  0.10566000000E+00 0. -1.
     999900   -1    0    0    0    0 -0.00000000000E+00 -0.00000000000E+00 -0.74505805969E-08  0.93827000000E+00  0.93827000000E+00 0. -1.
     999902    2    1    2    0    0 -0.11983603765E-01  0.14320188751E-01 -0.13765469919E-01  0.10207316654E+01  0.10204680152E+01 0.  0.
     999903    2    3    3    0    0  0.10161869871E+00 -0.67989129443E-01  0.33095148150E-01  0.12838855624E+00  0.20963084023E-01 0.  0.
         14    1    1    2    0    0  0.11983603765E-01 -0.14320188751E-01  0.13765469919E-01  0.23198334577E-01  0.00000000000E+00 0. -1.
     999901    1    3    3    0    0 -0.11360230247E+00  0.82309318194E-01 -0.46860618069E-01  0.89234310919E+00  0.88000000000E+00 0. -1.
        -11    1    4    4    0    0  0.70248555876E-01 -0.36752625081E-01  0.15711073479E-01  0.80825206488E-01  0.51100000000E-03 0.  1.
         11    1    4    4    0    0  0.31370142832E-01 -0.31236504362E-01  0.17384074671E-01  0.47563349747E-01  0.51100000000E-03 0. -1.
</event>
<event>
 8    1  0.1166736E+005  0.1043930E+01  0.7957747E-01            NaN
         13   -1    0    0    0    0  0.00000000000E+00  0.00000000000E+00  0.74505805969E-08  0.10566000000E+00  0.10566000000E+00 0. -1.
     999900   -1    0    0    0    0 -0.00000000000E+00 -0.00000000000E+00 -0.74505805969E-08  0.93827000000E+00  0.93827000000E+00 0.  1.
     999902    2    1    2    0    0  0.14676748754E-01 -0.18120506185E-01 -0.20368004312E-02  0.10205225599E+01  0.10202540796E+01 0.  0.
     999903    2    3    3    0    0  0.89214849818E-02 -0.12807888042E+00 -0.29492737802E-01  0.13323579920E+00  0.19954049750E-01 0.  0.
         14    1    1    2    0    0 -0.14676748754E-01  0.18120506185E-01  0.20368004312E-02  0.23407440150E-01  0.00000000000E+00 0.  1.
     999901    1    3    3    0    0  0.57552637717E-02  0.10995837424E+00  0.27455937371E-01  0.88728676065E+00  0.88000000000E+00 0. -1.
        -11    1    4    4    0    0 -0.54981863352E-02 -0.61854253781E-01 -0.12217507825E-01  0.63290657938E-01  0.51100000000E-03 0. -1.
         11    1    4    4    0    0  0.14419671317E-01 -0.66224626640E-01 -0.17275229977E-01  0.69945141263E-01  0.51100000000E-03 0.  1.
</event>
<event>
 8    1  0.1166736E+005  0.1043930E+01  0.7957747E-01            NaN
         13   -1    0    0    0    0  0.00000000000E+00  0.00000000000E+00  0.74505805969E-08  0.10566000000E+00  0.10566000000E+00 0. -1.
     999900   -1    0    0    0    0 -0.00000000000E+00 -0.00000000000E+00 -0.74505805969E-08  0.93827000000E+00  0.93827000000E+00 0. -1.
     999902    2    1    2    0    0  0.74928328198E-02  0.27768119902E-02 -0.25860430918E-01  0.10168631362E+01  0.10165028395E+01 0.  0.
     999903    2    3    3    0    0 -0.96416842038E-01  0.22417778246E-01 -0.80308228327E-01  0.12886113692E+00  0.18894889840E-01 0.  0.
         14    1    1    2    0    0 -0.74928328198E-02 -0.27768119902E-02  0.25860430918E-01  0.27066863796E-01  0.00000000000E+00 0. -1.
     999901    1    3    3    0    0  0.10390967486E+00 -0.19640966255E-01  0.54447797409E-01  0.88800199928E+00  0.88000000000E+00 0. -1.
        -11    1    4    4    0    0 -0.51952060662E-01  0.17176260155E-01 -0.33879256857E-01  0.64359192709E-01  0.51100000000E-03 0. -1.
         11    1    4    4    0    0 -0.44464781376E-01  0.52415180907E-02 -0.46428971469E-01  0.64501944214E-01  0.51100000000E-03 0.  1.
</event>
<event>
 8    1  0.1166736E+005  0.1043930E+01  0.7957747E-01            NaN
         13   -1    0    0    0    0  0.00000000000E+00  0.00000000000E+00  0.74505805969E-08  0.10566000000E+00  0.10566000000E+00 0. -1.
     999900   -1    0    0    0    0 -0.00000000000E+00 -0.00000000000E+00 -0.74505805969E-08  0.93827000000E+00  0.93827000000E+00 0. -1.
     999902    2    1    2    0    0 -0.34510043603E-02  0.25159815604E-01 -0.26883777418E-02  0.10183927110E+01  0.10180724732E+01 0.  0.
     999903    2    3    3    0    0  0.36861412654E-01  0.10491101095E-01  0.12133968531E+00  0.12866060385E+00  0.19010649787E-01 0.  0.
         14    1    1    2    0    0  0.34510043603E-02 -0.25159815604E-01  0.26883777418E-02  0.25537288955E-01  0.00000000000E+00 0. -1.
     999901    1    3    3    0    0 -0.40312417014E-01  0.14668714509E-01 -0.12402806306E+00  0.88973210720E+00  0.88000000000E+00 0. -1.
        -11    1    4    4    0    0  0.20984290794E-01  0.15192208115E-01  0.81291267794E-01  0.85321011411E-01  0.51100000000E-03 0. -1.
         11    1    4    4    0    0  0.15877121860E-01 -0.47011070201E-02  0.40048417520E-01  0.43339592437E-01  0.51100000000E-03 0.  1.
</event>
<event>
 8    1  0.1166736E+005  0.1043930E+01  0.7957747E-01            NaN
         13   -1    0    0    0    0  0.00000000000E+00  0.00000000000E+00  0.74505805969E-08  0.10566000000E+00  0.10566000000E+00 0.  1.
     999900   -1    0    0    0    0 -0.00000000000E+00 -0.00000000000E+00 -0.74505805969E-08  0.93827000000E+00  0.93827000000E+00 0. -1.
     999902    2    1    2    0    0  0.17274205681E-01  0.16813754890E-01  0.26787993158E-02  0.10196755880E+01  0.10193870846E+01 0.  0.
     999903    2    3    3    0    0 -0.10647767613E+00  0.70977578127E-01 -0.85724020146E-02  0.12929654651E+00  0.16395083177E-01 0.  0.
         14    1    1    2    0    0 -0.17274205681E-01 -0.16813754890E-01 -0.26787993158E-02  0.24254411994E-01  0.00000000000E+00 0. -1.
     999901    1    3    3    0    0  0.12375188181E+00 -0.54163823237E-01  0.11251201330E-01  0.89037904149E+00  0.88000000000E+00 0.  1.
        -11    1    4    4    0    0 -0.74981608938E-01  0.45412952486E-01  0.76788276879E-03  0.87666576855E-01  0.51100000000E-03 0.  1.
         11    1    4    4    0    0 -0.31496067194E-01  0.25564625640E-01 -0.93402847834E-02  0.41629969657E-01  0.51100000000E-03 0. -1.
</event>
<event>
 8    1  0.1166736E+005  0.1043930E+01  0.7957747E-01            NaN
         13   -1    0    0    0    0  0.00000000000E+00  0.00000000000E+00  0.74505805969E-08  0.10566000000E+00  0.10566000000E+00 0.  1.
     999900   -1    0    0    0    0 -0.00000000000E+00 -0.00000000000E+00 -0.74505805969E-08  0.93827000000E+00  0.93827000000E+00 0.  1.
     999902    2    1    2    0    0  0.17750826371E-01 -0.58687013602E-02 -0.14895748383E-01  0.10200256738E+01  0.10197455361E+01 0.  0.
     999903    2    3    3    0    0 -0.88006583910E-01 -0.66316665870E-01 -0.66761896267E-01  0.13012192418E+00  0.18207289074E-01 0.  0.
         14    1    1    2    0    0 -0.17750826371E-01  0.58687013602E-02  0.14895748383E-01  0.23904326228E-01  0.00000000000E+00 0.  1.
     999901    1    3    3    0    0  0.10575741028E+00  0.60447964510E-01  0.51866147884E-01  0.88990374959E+00  0.88000000000E+00 0. -1.
        -11    1    4    4    0    0 -0.56084051611E-01 -0.48045938648E-01 -0.35947679168E-01  0.82136044610E-01  0.51100000000E-03 0.  1.
         11    1    4    4    0    0 -0.31922532299E-01 -0.18270727222E-01 -0.30814217100E-01  0.47985879570E-01  0.51100000000E-03 0. -1.
</event>
<event>
 8    1  0.1166736E+005  0.1043930E+01  0.7957747E-01            NaN
         13   -1    0    0    0    0  0.00000000000E+00  0.00000000000E+00  0.74505805969E-08  0.10566000000E+00  0.10566000000E+00 0. -1.
     999900   -1    0    0    0    0 -0.00000000000E+00 -0.00000000000E+00 -0.74505805969E-08  0.93827000000E+00  0.93827000000E+00 0. -1.
     999902    2    1    2    0    0 -0.22210147152E-01  0.90584873351E-02  0.76749016491E-02  0.10187456607E+01  0.10184343230E+01 0.  0.
     999903    2    3    3    0    0  0.44324122869E-01  0.11483728976E+00  0.34381929807E-01  0.12951608998E+00  0.20977833076E-01 0.  0.
         14    1    1    2    0    0  0.22210147152E-01 -0.90584873351E-02 -0.76749016491E-02  0.25184339273E-01  0.00000000000E+00 0.  1.
     999901    1    3    3    0    0 -0.66534270021E-01 -0.10577880242E+00 -0.26707028158E-01  0.88922957074E+00  0.88000000000E+00 0. -1.
        -11    1    4    4    0    0  0.10234055946E-01  0.53047938494E-01  0.10705513926E-01  0.55078932715E-01  0.51100000000E-03 0.  1.
         11    1    4    4    0    0  0.34090066923E-01  0.61789351264E-01  0.23676415881E-01  0.74437157270E-01  0.51100000000E-03 0. -1.
</event>
<event>
 8    1  0.1166736E+005  0.1043930E+01  0.7957747E-01            NaN
         13   -1    0    0    0    0  0.00000000000E+00  0.00000000000E+00  0.74505805969E-08  0.10566000000E+00  0.10566000000E+00 0.  1.
     999900   -1    0    0    0    0 -0.00000000000E+00 -0.00000000000E+00 -0.74505805969E-08  0.93827000000E+00  0.93827000000E+00 0.  1.
     999902    2    1    2    0    0  0.11040393599E-01 -0.20590439012E-01 -0.39051631178E-02  0.10202423077E+01  0.10199672836E+01 0.  0.
     999903    2    3    3    0    0 -0.97730354758E-01 -0.57638642839E-01 -0.62001720290E-01  0.13087238740E+00  0.20246804078E-01 0.  0.
         14    1    1    2    0    0 -0.11040393599E-01  0.20590439012E-01  0.39051631178E-02  0.23687692342E-01  0.00000000000E+00 0.  1.
     999901    1    3    3    0    0  0.10877074836E+00  0.37048203827E-01  0.58096557172E-01  0.88936992026E+00  0.88000000000E+00 0. -1.
        -11    1    4    4    0    0 -0.78265087498E-01 -0.38180746666E-01 -0.52839729123E-01  0.10186015625E+00  0.51100000000E-03 0.  1.
         11    1    4    4    0    0 -0.19465267261E-01 -0.19457896173E-01 -0.91619911664E-02  0.29012231147E-01  0.51100000000E-03 0. -1.
</event>
<event>
 8    1  0.1166736E+005  0.1043930E+01  0.7957747E-01            NaN
         13   -1    0    0    0    0  0.00000000000E+00  0.00000000000E+00  0.74505805969E-08  0.10566000000E+00  0.10566000000E+00 0. -1.
     999900   -1    0    0    0    0 -0.00000000000E+00 -0.00000000000E+00 -0.74505805969E-08  0.93827000000E+00  0.93827000000E+00 0. -1.
     999902    2    1    2    0    0  0.83403175094E-02 -0.29727817130E-02  0.21689755971E-01  0.10205025836E+01  0.10202336395E+01 0.  0.
     999903    2    3    3    0    0  0.99009885296E-01 -0.11869742353E-01  0.86495969158E-01  0.13342875816E+00  0.19437917937E-01 0.  0.
         14    1    1    2    0    0 -0.83403175094E-02  0.29727817130E-02 -0.21689755971E-01  0.23427416446E-01  0.00000000000E+00 0.  1.
     999901    1    3    3    0    0 -0.90669567786E-01  0.88969606402E-02 -0.64806213187E-01  0.88707382539E+00  0.88000000000E+00 0.  1.
        -11    1    4    4    0    0  0.16537395016E-01 -0.29218018013E-02  0.60119557939E-02  0.17844525579E-01  0.51100000000E-03 0.  1.
         11    1    4    4    0    0  0.82472490280E-01 -0.89479405519E-02  0.80484013364E-01  0.11558423258E+00  0.51100000000E-03 0. -1.
</event>
<event>
 8    1  0.1166736E+005  0.1043930E+01  0.7957747E-01            NaN
         13   -1    0    0    0    0  0.00000000000E+00  0.00000000000E+00  0.74505805969E-08  0.10566000000E+00  0.10566000000E+00 0.  1.
     999900   -1    0    0    0    0 -0.00000000000E+00 -0.00000000000E+00 -0.74505805969E-08  0.93827000000E+00  0.93827000000E+00 0.  1.
     999902    2    1    2    0    0  0.16342004928E-01 -0.13929387687E-01  0.91419975477E-02  0.10205919391E+01  0.10203250664E+01 0.  0.
     999903    2    3    3    0    0  0.60673073448E-01 -0.85367247628E-01  0.80681665933E-01  0.13369479986E+00  0.19899233255E-01 0.  0.
         14    1    1    2    0    0 -0.16342004928E-01  0.13929387687E-01 -0.91419975477E-02  0.23338060879E-01  0.00000000000E+00 0. -1.
     999901    1    3    3    0    0 -0.44331068519E-01  0.71437859941E-01 -0.71539668385E-01  0.88689713926E+00  0.88000000000E+00 0.  1.
        -11    1    4    4    0    0  0.17240222353E-01 -0.38939175798E-01  0.38371899372E-01  0.57324937514E-01  0.51100000000E-03 0. -1.
         11    1    4    4    0    0  0.43432851094E-01 -0.46428071830E-01  0.42309766561E-01  0.76369862351E-01  0.51100000000E-03 0.  1.
</event>
<event>
 8    1  0.1166736E+005  0.1043930E+01  0.7957747E-01            NaN
         13   -1    0    0    0    0  0.00000000000E+00  0.00000000000E+00  0.74505805969E-08  0.10566000000E+00  0.10566000000E+00 0.  1.
     999900   -1    0    0    0    0 -0.00000000000E+00 -0.00000000000E+00 -0.74505805969E-08  0.93827000000E+00  0.93827000000E+00 0.  1.
     999902    2    1    2    0    0 -0.10526357355E-01  0.13310550946E-01  0.17465982378E-01  0.10195776797E+01  0.10192868141E+01 0.  0.
     999903    2    3    3    0    0  0.39958536294E-02  0.93254510494E-01  0.92142417860E-01  0.13268506987E+00  0.20068184358E-01 0.  0.
         14    1    1    2    0    0  0.10526357355E-01 -0.13310550946E-01 -0.17465982378E-01  0.24352320343E-01  0.00000000000E+00 0. -1.
     999901    1    3    3    0    0 -0.14522210984E-01 -0.79943959548E-01 -0.74676435481E-01  0.88689260979E+00  0.88000000000E+00 0.  1.
        -11    1    4    4    0    0 -0.58967952674E-02  0.48664310867E-01  0.56091768652E-01  0.74495201041E-01  0.51100000000E-03 0. -1.
         11    1    4    4    0    0  0.98926488968E-02  0.44590199627E-01  0.36050649208E-01  0.58189868828E-01  0.51100000000E-03 0.  1.
</event>
<event>
 8    1  0.1166736E+005  0.1043930E+01  0.7957747E-01            NaN
         13   -1    0    0    0    0  0.00000000000E+00  0.00000000000E+00  0.74505805969E-08  0.10566000000E+00  0.10566000000E+00 0. -1.
     999900   -1    0    0    0    0 -0.00000000000E+00 -0.00000000000E+00 -0.74505805969E-08  0.93827000000E+00  0.93827000000E+00 0. -1.
     999902    2    1    2    0    0 -0.97511789918E-02  0.84667365389E-02  0.20231576455E-01  0.10199281708E+01  0.10196457158E+01 0.  0.
     999903    2    3    3    0    0 -0.12374026265E+00  0.29749107845E-01 -0.23877630356E-01  0.13122570503E+00  0.21292778400E-01 0.  0.
         14    1    1    2    0    0  0.97511789918E-02 -0.84667365389E-02 -0.20231576455E-01  0.24001829206E-01  0.00000000000E+00 0.  1.
     999901    1    3    3    0    0  0.11398908366E+00 -0.21282371306E-01  0.44109206812E-01  0.88870246576E+00  0.88000000000E+00 0.  1.
        -11    1    4    4    0    0 -0.43112598709E-01  0.39166687765E-02 -0.13527728509E-03  0.43293369962E-01  0.51100000000E-03 0. -1.
         11    1    4    4    0    0 -0.80627663942E-01  0.25832439069E-01 -0.23742353071E-01  0.87932335073E-01  0.51100000000E-03 0.  1.
</event>
<event>
 8    1  0.1166736E+005  0.1043930E+01  0.7957747E-01            NaN
         13   -1    0    0    0    0  0.00000000000E+00  0.00000000000E+00  0.74505805969E-08  0.10566000000E+00  0.10566000000E+00 0.  1.
     999900   -1    0    0    0    0 -0.00000000000E+00 -0.00000000000E+00 -0.74505805969E-08  0.93827000000E+00  0.93827000000E+00 0. -1.
     999902    2    1    2    0    0 -0.53878746224E-02 -0.19448895548E-01  0.13265536879E-01  0.10197791574E+01  0.10194931420E+01 0.  0.
     999903    2    3    3    0    0 -0.29338942220E-01  0.12288419647E+00  0.73973388162E-02  0.12800183176E+00  0.19195026423E-01 0.  0.
         14    1    1    2    0    0  0.53878746224E-02  0.19448895548E-01 -0.13265536879E-01  0.24150842628E-01  0.00000000000E+00 0. -1.
     999901    1    3    3    0    0  0.23951067598E-01 -0.14233309202E+00  0.58681980624E-02  0.89177732561E+00  0.88000000000E+00 0.  1.
        -11    1    4    4    0    0 -0.48811399693E-02  0.50457282723E-01  0.92513204990E-02  0.51532620340E-01  0.51100000000E-03 0. -1.
         11    1    4    4    0    0 -0.24457802251E-01  0.72426913750E-01 -0.18539816829E-02  0.76469211422E-01  0.51100000000E-03 0.  1.
</event>
<event>
 8    1  0.1166736E+005  0.1043930E+01  0.7957747E-01            NaN
         13   -1    0    0    0    0  0.00000000000E+00  0.00000000000E+00  0.74505805969E-08  0.10566000000E+00  0.10566000000E+00 0.  1.
     999900   -1    0    0    0    0 -0.00000000000E+00 -0.00000000000E+00 -0.74505805969E-08  0.93827000000E+00  0.93827000000E+00 0. -1.
     999902    2    1    2    0    0 -0.13373246883E-01 -0.14257142483E-01 -0.13582380957E-01  0.10201268297E+01  0.10198490858E+01 0.  0.
     999903    2    3    3    0    0  0.93010791767E-01  0.84967810478E-01 -0.12597042125E-01  0.12818281472E+00  0.20040267355E-01 0.  0.
         14    1    1    2    0    0  0.13373246883E-01  0.14257142483E-01  0.13582380957E-01  0.23803170303E-01  0.00000000000E+00 0. -1.
     999901    1    3    3    0    0 -0.10638403865E+00 -0.99224952961E-01 -0.98533883294E-03  0.89194401498E+00  0.88000000000E+00 0.  1.
        -11    1    4    4    0    0  0.36400048452E-01  0.35647871136E-01 -0.14833522784E-01  0.53066267657E-01  0.51100000000E-03 0. -1.
         11    1    4    4    0    0  0.56610743314E-01  0.49319939342E-01  0.22364806592E-02  0.75116547059E-01  0.51100000000E-03 0.  1.
</event>
<event>
 8    1  0.1166736E+005  0.1043930E+01  0.7957747E-01            NaN
         13   -1    0    0    0    0  0.00000000000E+00  0.00000000000E+00  0.74505805969E-08  0.10566000000E+00  0.10566000000E+00 0.  1.
     999900   -1    0    0    0    0 -0.00000000000E+00 -0.00000000000E+00 -0.74505805969E-08  0.93827000000E+00  0.93827000000E+00 0.  1.
     999902    2    1    2    0    0  0.14398995064E-01  0.17949725419E-01  0.28711376207E-02  0.10207401933E+01  0.10204767392E+01 0.  0.
     999903    2    3    3    0    0 -0.16933297879E-01  0.12567449820E+00 -0.32509463061E-01  0.13291243631E+00  0.22979000513E-01 0.  0.
         14    1    1    2    0    0 -0.14398995064E-01 -0.17949725419E-01 -0.28711376207E-02  0.23189806655E-01  0.00000000000E+00 0. -1.
     999901    1    3    3    0    0  0.31332292943E-01 -0.10772477278E+00  0.35380600682E-01  0.88782775703E+00  0.88000000000E+00 0. -1.
        -11    1    4    4    0    0 -0.88252407237E-02  0.67796961711E-01 -0.56884457166E-02  0.68607087293E-01  0.51100000000E-03 0.  1.
         11    1    4    4    0    0 -0.81080571556E-02  0.57877536484E-01 -0.26821017345E-01  0.64305349021E-01  0.51100000000E-03 0. -1.
</event>
<event>
 8    1  0.1166736E+005  0.1043930E+01  0.7957747E-01            NaN
         13   -1    0    0    0    0  0.00000000000E+00  0.00000000000E+00  0.74505805969E-08  0.10566000000E+00  0.10566000000E+00 0.  1.
     999900   -1    0    0    0    0 -0.00000000000E+00 -0.00000000000E+00 -0.74505805969E-08  0.93827000000E+00  0.93827000000E+00 0.  1.
     999902    2    1    2    0    0 -0.10571751965E-02  0.40314727754E-02  0.24008148443E-01  0.10195627764E+01  0.10192715504E+01 0.  0.
     999903    2    3    3    0    0 -0.20646977813E-01  0.10632547501E+00 -0.66943333275E-01  0.12876538349E+00  0.19175760401E-01 0.  0.
         14    1    1    2    0    0  0.10571751965E-02 -0.40314727754E-02 -0.24008148443E-01  0.24367223555E-01  0.00000000000E+00 0. -1.
     999901    1    3    3    0    0  0.19589802617E-01 -0.10229400224E+00  0.90951481718E-01  0.89079739295E+00  0.88000000000E+00 0. -1.
        -11    1    4    4    0    0 -0.21730578917E-01  0.79375057024E-01 -0.56558184419E-01  0.99858435214E-01  0.51100000000E-03 0. -1.
         11    1    4    4    0    0  0.10836011033E-02  0.26950417989E-01 -0.10385148856E-01  0.28906948280E-01  0.51100000000E-03 0.  1.
</event>
<event>
 8    1  0.1166736E+005  0.1043930E+01  0.7957747E-01            NaN
         13   -1    0    0    0    0  0.00000000000E+00  0.00000000000E+00  0.74505805969E-08  0.10566000000E+00  0.10566000000E+00 0. -1.
     999900   -1    0    0    0    0 -0.00000000000E+00 -0.00000000000E+00 -0.74505805969E-08  0.93827000000E+00  0.93827000000E+00 0.  1.
     999902    2    1    2    0    0 -0.14978406704E-01 -0.15775886584E-01 -0.68452945821E-02  0.10211245330E+01  0.10208698363E+01 0.  0.
     999903    2    3    3    0    0 -0.12694079748E+00 -0.18237177584E-01  0.30514499001E-01  0.13324087565E+00  0.19376160171E-01 0.  0.
         14    1    1    2    0    0  0.14978406704E-01  0.15775886584E-01  0.68452945821E-02  0.22805466950E-01  0.00000000000E+00 0.  1.
     999901    1    3    3    0    0  0.11196239078E+00  0.24612909998E-02 -0.37359793583E-01  0.88788365740E+00  0.88000000000E+00 0.  1.
        -11    1    4    4    0    0 -0.76686298373E-01 -0.18853803659E-01  0.24131554106E-01  0.82576311950E-01  0.51100000000E-03 0. -1.
         11    1    4    4    0    0 -0.50254499108E-01  0.61662607502E-03  0.63829448948E-02  0.50664563700E-01  0.51100000000E-03 0.  1.
</event>
<event>
 8    1  0.1166736E+005  0.1043930E+01  0.7957747E-01            NaN
         13   -1    0    0    0    0  0.00000000000E+00  0.00000000000E+00  0.74505805969E-08  0.10566000000E+00  0.10566000000E+00 0.  1.
     999900   -1    0    0    0    0 -0.00000000000E+00 -0.00000000000E+00 -0.74505805969E-08  0.93827000000E+00  0.93827000000E+00 0.  1.
     999902    2    1    2    0    0 -0.13565978401E-03  0.77492676263E-02 -0.22767502124E-01  0.10198794552E+01  0.10195958388E+01 0.  0.
     999903    2    3    3    0    0 -0.32026256457E-01  0.80841871186E-03  0.12159577044E+00  0.12751969590E+00  0.21199217242E-01 0.  0.
         14    1    1    2    0    0  0.13565978401E-03 -0.77492676263E-02  0.22767502124E-01  0.24050544803E-01  0.00000000000E+00 0. -1.
     999901    1    3    3    0    0  0.31890596673E-01  0.69408489144E-02 -0.14436327256E+00  0.89235975929E+00  0.88000000000E+00 0.  1.
        -11    1    4    4    0    0 -0.40971509208E-02  0.77504347248E-02  0.18453110644E-01  0.20436102797E-01  0.51100000000E-03 0.  1.
         11    1    4    4    0    0 -0.27929105536E-01 -0.69420160130E-02  0.10314265979E+00  0.10708359311E+00  0.51100000000E-03 0. -1.
</event>
<event>
 8    1  0.1166736E+005  0.1043930E+01  0.7957747E-01            NaN
         13   -1    0    0    0    0  0.00000000000E+00  0.00000000000E+00  0.74505805969E-08  0.10566000000E+00  0.10566000000E+00 0.  1.
     999900   -1    0    0    0    0 -0.00000000000E+00 -0.00000000000E+00 -0.74505805969E-08  0.93827000000E+00  0.93827000000E+00 0.  1.
     999902    2    1    2    0    0 -0.15708943327E-01  0.85277348059E-02 -0.15252570123E-01  0.10204324670E+01  0.10201618919E+01 0.  0.
     999903    2    3    3    0    0  0.67448902459E-01  0.93647431943E-01  0.52876106501E-01  0.12981352114E+00  0.27138011720E-01 0.  0.
         14    1    1    2    0    0  0.15708943327E-01 -0.85277348059E-02  0.15252570123E-01  0.23497532992E-01  0.00000000000E+00 0.  1.
     999901    1    3    3    0    0 -0.83157845786E-01 -0.85119697137E-01 -0.68128676624E-01  0.89061894587E+00  0.88000000000E+00 0.  1.
        -11    1    4    4    0    0  0.39402833651E-01  0.46036424376E-01  0.41356013044E-01  0.73365636404E-01  0.51100000000E-03 0. -1.
         11    1    4    4    0    0  0.28046068808E-01  0.47611007567E-01  0.11520093457E-01  0.56447884738E-01  0.51100000000E-03 0.  1.
</event>
<event>
 8    1  0.1166736E+005  0.1043930E+01  0.7957747E-01            NaN
         13   -1    0    0    0    0  0.00000000000E+00  0.00000000000E+00  0.74505805969E-08  0.10566000000E+00  0.10566000000E+00 0. -1.
     999900   -1    0    0    0    0 -0.00000000000E+00 -0.00000000000E+00 -0.74505805969E-08  0.93827000000E+00  0.93827000000E+00 0.  1.
     999902    2    1    2    0    0 -0.11335003301E-01 -0.16108484803E-01 -0.12776105863E-01  0.10204524690E+01  0.10201823597E+01 0.  0.
     999903    2    3    3    0    0  0.38580200178E-01  0.11076444196E+00  0.47120503134E-01  0.12794147696E+00  0.19786011789E-01 0.  0.
         14    1    1    2    0    0  0.11335003301E-01  0.16108484803E-01  0.12776105863E-01  0.23477531035E-01  0.00000000000E+00 0. -1.
     999901    1    3    3    0    0 -0.49915203480E-01 -0.12687292676E+00 -0.59896608997E-01  0.89251099201E+00  0.88000000000E+00 0.  1.
        -11    1    4    4    0    0  0.16740401547E-01  0.36359643745E-01  0.25406168327E-01  0.47413070427E-01  0.51100000000E-03 0. -1.
         11    1    4    4    0    0  0.21839798631E-01  0.74404798213E-01  0.21714334808E-01  0.80528406532E-01  0.51100000000E-03 0.  1.
</event>
<event>
 8    1  0.1166736E+005  0.1043930E+01  0.7957747E-01            NaN
         13   -1    0    0    0    0  0.00000000000E+00  0.00000000000E+00  0.74505805969E-08  0.10566000000E+00  0.10566000000E+00 0.  1.
     999900   -1    0    0    0    0 -0.00000000000E+00 -0.00000000000E+00 -0.74505805969E-08  0.93827000000E+00  0.93827000000E+00 0.  1.
     999902    2    1    2    0    0 -0.96052072255E-02 -0.19036446966E-01  0.88050051548E-02  0.10208610938E+01  0.10206004107E+01 0.  0.
     999903    2    3    3    0    0  0.16904346394E-01  0.53023579909E-01 -0.11450011118E+00  0.12895327587E+00  0.20528393621E-01 0.  0.
         14    1    1    2    0    0  0.96052072255E-02  0.19036446966E-01 -0.88050051548E-02  0.23068906232E-01  0.00000000000E+00 0. -1.
     999901    1    3    3    0    0 -0.26509553619E-01 -0.72060026875E-01  0.12330511634E+00  0.89190781789E+00  0.88000000000E+00 0. -1.
        -11    1    4    4    0    0  0.20926423479E-01  0.45809234219E-01 -0.90560890913E-01  0.10362401856E+00  0.51100000000E-03 0. -1.
         11    1    4    4    0    0 -0.40220770854E-02  0.72143456900E-02 -0.23939220269E-01  0.25329257310E-01  0.51100000000E-03 0.  1.
</event>
<event>
 8    1  0.1166736E+005  0.1043930E+01  0.7957747E-01            NaN
         13   -1    0    0    0    0  0.00000000000E+00  0.00000000000E+00  0.74505805969E-08  0.10566000000E+00  0.10566000000E+00 0.  1.
     999900   -1    0    0    0    0 -0.00000000000E+00 -0.00000000000E+00 -0.74505805969E-08  0.93827000000E+00  0.93827000000E+00 0.  1.
     999902    2    1    2    0    0 -0.16795916668E-02  0.19553397132E-01 -0.13761293815E-01  0.10199606534E+01  0.10196789715E+01 0.  0.
     999903    2    3    3    0    0 -0.19675873636E-01  0.11004691510E+00 -0.69962503263E-01  0.13335390921E+00  0.19774976910E-01 0.  0.
         14    1    1    2    0    0  0.16795916668E-02 -0.19553397132E-01  0.13761293815E-01  0.23969346571E-01  0.00000000000E+00 0.  1.
     999901    1    3    3    0    0  0.17996281969E-01 -0.90493517966E-01  0.56201209447E-01  0.88660674422E+00  0.88000000000E+00 0.  1.
        -11    1    4    4    0    0 -0.69609381577E-02  0.86241867365E-01 -0.52534284674E-01  0.10122364612E+00  0.51100000000E-03 0. -1.
         11    1    4    4    0    0 -0.12714935478E-01  0.23805047733E-01 -0.17428218589E-01  0.32130263086E-01  0.51100000000E-03 0.  1.
</event>
<event>
 8    1  0.1166736E+005  0.1043930E+01  0.7957747E-01            NaN
         13   -1    0    0    0    0  0.00000000000E+00  0.00000000000E+00  0.74505805969E-08  0.10566000000E+00  0.10566000000E+00 0. -1.
     999900   -1    0    0    0    0 -0.00000000000E+00 -0.00000000000E+00 -0.74505805969E-08  0.93827000000E+00  0.93827000000E+00 0.  1.
     999902    2    1    2    0    0  0.20804803613E-01 -0.99706438686E-02 -0.72254240681E-02  0.10197543853E+01  0.10194677759E+01 0.  0.
     999903    2    3    3    0    0  0.72503619224E-01  0.58765009975E-01 -0.90752928015E-01  0.13162477678E+00  0.19465012718E-01 0.  0.
         14    1    1    2    0    0 -0.20804803613E-01  0.99706438686E-02  0.72254240681E-02  0.24175614687E-01  0.00000000000E+00 0. -1.
     999901    1    3    3    0    0 -0.51698815611E-01 -0.68735653844E-01  0.83527503947E-01  0.88812960854E+00  0.88000000000E+00 0. -1.
        -11    1    4    4    0    0  0.13165917561E-01  0.23220731554E-02 -0.14420146596E-01  0.19670667447E-01  0.51100000000E-03 0.  1.
         11    1    4    4    0    0  0.59337701662E-01  0.56442936820E-01 -0.76332781419E-01  0.11195410933E+00  0.51100000000E-03 0. -1.
</event>
<event>
 8    1  0.1166736E+005  0.1043930E+01  0.7957747E-01            NaN
         13   -1    0    0    0    0  0.00000000000E+00  0.00000000000E+00  0.74505805969E-08  0.10566000000E+00  0.10566000000E+00 0.  1.
     999900   -1    0    0    0    0 -0.00000000000E+00 -0.00000000000E+00 -0.74505805969E-08  0.93827000000E+00  0.93827000000E+00 0.  1.
     999902    2    1    2    0    0  0.28267047188E-02  0.17847124042E-01  0.14127687556E-01  0.10209930941E+01  0.10207354195E+01 0.  0.
     999903    2    3    3    0    0 -0.13053450450E-03 -0.77630018307E-02 -0.12747158098E+00  0.12930089572E+00  0.20234535825E-01 0.  0.
         14    1    1    2    0    0 -0.28267047188E-02 -0.17847124042E-01 -0.14127687556E-01  0.22936905890E-01  0.00000000000E+00 0. -1.
     999901    1    3    3    0    0  0.29572392233E-02  0.25610125873E-01  0.14159926854E+00  0.89169219839E+00  0.88000000000E+00 0. -1.
        -11    1    4    4    0    0  0.54598724616E-02  0.18676934097E-02 -0.12353617996E-01  0.13644467178E-01  0.51100000000E-03 0.  1.
         11    1    4    4    0    0 -0.55904069661E-02 -0.96306952404E-02 -0.11511796299E+00  0.11565642855E+00  0.51100000000E-03 0. -1.
</event>
<event>
 8    1  0.1166736E+005  0.1043930E+01  0.7957747E-01            NaN
         13   -1    0    0    0    0  0.00000000000E+00  0.00000000000E+00  0.74505805969E-08  0.10566000000E+00  0.10566000000E+00 0. -1.
     999900   -1    0    0    0    0 -0.00000000000E+00 -0.00000000000E+00 -0.74505805969E-08  0.93827000000E+00  0.93827000000E+00 0.  1.
     999902    2    1    2    0    0 -0.52674449033E-02  0.16978822560E-01  0.15410931255E-01  0.10204029264E+01  0.10201316626E+01 0.  0.
     999903    2    3    3    0    0 -0.67007411897E-01 -0.10509722365E+00  0.29862203845E-01  0.12971598706E+00  0.19976646666E-01 0.  0.
         14    1    1    2    0    0  0.52674449033E-02 -0.16978822560E-01 -0.15410931255E-01  0.23527073628E-01  0.00000000000E+00 0. -1.
     999901    1    3    3    0    0  0.61739966993E-01  0.12207604621E+00 -0.14451272590E-01  0.89068693931E+00  0.88000000000E+00 0.  1.
        -11    1    4    4    0    0 -0.14943171993E-01 -0.10874732474E-01  0.26386800646E-02  0.18675704781E-01  0.51100000000E-03 0.  1.
         11    1    4    4    0    0 -0.52064239904E-01 -0.94222491178E-01  0.27223523780E-01  0.11104028228E+00  0.51100000000E-03 0. -1.
</event>
<event>
 8    1  0.1166736E+005  0.1043930E+01  0.7957747E-01            NaN
         13   -1    0    0    0    0  0.00000000000E+00  0.00000000000E+00  0.74505805969E-08  0.10566000000E+00  0.10566000000E+00 0.  1.
     999900   -1    0    0    0    0 -0.00000000000E+00 -0.00000000000E+00 -0.74505805969E-08  0.93827000000E+00  0.93827000000E+00 0. -1.
     999902    2    1    2    0    0  0.21640004766E-01 -0.67502695812E-02  0.66010433689E-02  0.10203200504E+01  0.10200468497E+01 0.  0.
     999903    2    3    3    0    0  0.23187602687E-01 -0.66796273228E-03  0.12832486130E+00  0.13191919643E+00  0.19932216810E-01 0.  0.
         14    1    1    2    0    0 -0.21640004766E-01  0.67502695812E-02 -0.66010433689E-02  0.23609949582E-01  0.00000000000E+00 0. -1.
     999901    1    3    3    0    0 -0.15475979204E-02 -0.60823068489E-02 -0.12172381793E+00  0.88840085399E+00  0.88000000000E+00 0. -1.
        -11    1    4    4    0    0  0.21244497753E-01  0.72183984120E-02  0.94980143255E-01  0.97595710429E-01  0.51100000000E-03 0.  1.
         11    1    4    4    0    0  0.19431049340E-02 -0.78863611443E-02  0.33344718043E-01  0.34323486001E-01  0.51100000000E-03 0. -1.
</event>
<event>
 8    1  0.1166736E+005  0.1043930E+01  0.7957747E-01            NaN
         13   -1    0    0    0    0  0.00000000000E+00  0.00000000000E+00  0.74505805969E-08  0.10566000000E+00  0.10566000000E+00 0. -1.
     999900   -1    0    0    0    0 -0.00000000000E+00 -0.00000000000E+00 -0.74505805969E-08  0.93827000000E+00  0.93827000000E+00 0. -1.
     999902    2    1    2    0    0 -0.26382510567E-02 -0.17895745846E-01 -0.12295878088E-01  0.10220574897E+01  0.10218234219E+01 0.  0.
     999903    2    3    3    0    0  0.78107989064E-01 -0.26040162840E-01  0.10020091688E+00  0.13119172222E+00  0.19801419099E-01 0.  0.
         14    1    1    2    0    0  0.26382510567E-02  0.17895745846E-01  0.12295878088E-01  0.21872510281E-01  0.00000000000E+00 0. -1.
     999901    1    3    3    0    0 -0.80746240121E-01  0.81444169933E-02 -0.11249679497E+00  0.89086576750E+00  0.88000000000E+00 0.  1.
        -11    1    4    4    0    0  0.51794588073E-01 -0.72313359076E-02  0.60092329872E-01  0.79663798573E-01  0.51100000000E-03 0.  1.
         11    1    4    4    0    0  0.26313400992E-01 -0.18808826932E-01  0.40108587013E-01  0.51527923648E-01  0.51100000000E-03 0. -1.
</event>
<event>
 8    1  0.1166736E+005  0.1043930E+01  0.7957747E-01            NaN
         13   -1    0    0    0    0  0.00000000000E+00  0.00000000000E+00  0.74505805969E-08  0.10566000000E+00  0.10566000000E+00 0.  1.
     999900   -1    0    0    0    0 -0.00000000000E+00 -0.00000000000E+00 -0.74505805969E-08  0.93827000000E+00  0.93827000000E+00 0. -1.
     999902    2    1    2    0    0 -0.17046012353E-01 -0.60210260130E-02  0.14670811605E-01  0.10206479897E+01  0.10203824121E+01 0.  0.
     999903    2    3    3    0    0  0.10516909007E+00  0.67588775282E-01 -0.21969314569E-01  0.12840506707E+00  0.19401814736E-01 0.  0.
         14    1    1    2    0    0  0.17046012353E-01  0.60210260130E-02 -0.14670811605E-01  0.23282010320E-01  0.00000000000E+00 0. -1.
     999901    1    3    3    0    0 -0.12221510243E+00 -0.73609801295E-01  0.36640126174E-01  0.89224292261E+00  0.88000000000E+00 0.  1.
        -11    1    4    4    0    0  0.59768945937E-01  0.35316885763E-01 -0.21573238732E-01  0.72699897309E-01  0.51100000000E-03 0. -1.
         11    1    4    4    0    0  0.45400144135E-01  0.32271889520E-01 -0.39607583723E-03  0.55705169758E-01  0.51100000000E-03 0.  1.
</event>
<event>
 8    1  0.1166736E+005  0.1043930E+01  0.7957747E-01            NaN
         13   -1    0    0    0    0  0.00000000000E+00  0.00000000000E+00  0.74505805969E-08  0.10566000000E+00  0.10566000000E+00 0. -1.
     999900   -1    0    0    0    0 -0.00000000000E+00 -0.00000000000E+00 -0.74505805969E-08  0.93827000000E+00  0.93827000000E+00 0.  1.
     999902    2    1    2    0    0  0.10636408236E-01 -0.82983469851E-02 -0.19487508125E-01  0.10202285503E+01  0.10199532030E+01 0.  0.
     999903    2    3    3    0    0  0.15494140627E-01  0.53873026618E-01 -0.11832536749E+00  0.13250235398E+00  0.20337399737E-01 0.  0.
         14    1    1    2    0    0 -0.10636408236E-01  0.82983469851E-02  0.19487508125E-01  0.23701449656E-01  0.00000000000E+00 0. -1.
     999901    1    3    3    0    0 -0.48577323902E-02 -0.62171373603E-01  0.98837859368E-01  0.88772619636E+00  0.88000000000E+00 0. -1.
        -11    1    4    4    0    0  0.46827992626E-02  0.46012624416E-01 -0.92272388557E-01  0.10321601148E+00  0.51100000000E-03 0.  1.
         11    1    4    4    0    0  0.10811341364E-01  0.78604022025E-02 -0.26052978937E-01  0.29286342506E-01  0.51100000000E-03 0. -1.
</event>
<event>
 8    1  0.1166736E+005  0.1043930E+01  0.7957747E-01            NaN
         13   -1    0    0    0    0  0.00000000000E+00  0.00000000000E+00  0.74505805969E-08  0.10566000000E+00  0.10566000000E+00 0. -1.
     999900   -1    0    0    0    0 -0.00000000000E+00 -0.00000000000E+00 -0.74505805969E-08  0.93827000000E+00  0.93827000000E+00 0.  1.
     999902    2    1    2    0    0 -0.12555900413E-01 -0.13613661080E-01  0.15798948760E-01  0.10195868452E+01  0.10192962012E+01 0.  0.
     999903    2    3    3    0    0  0.94517544589E-02  0.12487098298E+00  0.20530955957E-01  0.12847252852E+00  0.20039270920E-01 0.  0.
         14    1    1    2    0    0  0.12555900413E-01  0.13613661080E-01 -0.15798948760E-01  0.24343154790E-01  0.00000000000E+00 0.  1.
     999901    1    3    3    0    0 -0.22007654872E-01 -0.13848464406E+00 -0.47320071969E-02  0.89111431669E+00  0.88000000000E+00 0. -1.
        -11    1    4    4    0    0  0.85937395488E-04  0.99082924692E-01  0.12430419443E-01  0.99860952325E-01  0.51100000000E-03 0.  1.
         11    1    4    4    0    0  0.93658170634E-02  0.25788058291E-01  0.81005365142E-02  0.28611576197E-01  0.51100000000E-03 0. -1.
</event>
<event>
 8    1  0.1166736E+005  0.1043930E+01  0.7957747E-01            NaN
         13   -1    0    0    0    0  0.00000000000E+00  0.00000000000E+00  0.74505805969E-08  0.10566000000E+00  0.10566000000E+00 0. -1.
     999900   -1    0    0    0    0 -0.00000000000E+00 -0.00000000000E+00 -0.74505805969E-08  0.93827000000E+00  0.93827000000E+00 0.  1.
     999902    2    1    2    0    0 -0.10334592764E-01  0.10225873671E-01 -0.19086808342E-01  0.10199366978E+01  0.10196544458E+01 0.  0.
     999903    2    3    3    0    0  0.96208375229E-01 -0.44317553269E-01  0.68008043080E-01  0.12757359756E+00  0.20732387183E-01 0.  0.
         14    1    1    2    0    0  0.10334592764E-01 -0.10225873671E-01  0.19086808342E-01  0.23993302245E-01  0.00000000000E+00 0. -1.
     999901    1    3    3    0    0 -0.10654296799E+00  0.54543426939E-01 -0.87094851422E-01  0.89236310020E+00  0.88000000000E+00 0.  1.
        -11    1    4    4    0    0  0.73127700781E-01 -0.41039030235E-01  0.46690370251E-01  0.95979760467E-01  0.51100000000E-03 0.  1.
         11    1    4    4    0    0  0.23080674448E-01 -0.32785230332E-02  0.21317672829E-01  0.31593837090E-01  0.51100000000E-03 0. -1.
</event>
<event>
 8    1  0.1166736E+005  0.1043930E+01  0.7957747E-01            NaN
         13   -1    0    0    0    0  0.00000000000E+00  0.00000000000E+00  0.74505805969E-08  0.10566000000E+00  0.10566000000E+00 0.  1.
     999900   -1    0    0    0    0 -0.00000000000E+00 -0.00000000000E+00 -0.74505805969E-08  0.93827000000E+00  0.93827000000E+00 0.  1.
     999902    2    1    2    0    0 -0.39939474959E-03 -0.12863248847E-01  0.19922771014E-01  0.10202120850E+01  0.10199363504E+01 0.  0.
     999903    2    3    3    0    0 -0.55995970122E-03  0.12313676923E+00  0.35315869199E-01  0.12963194926E+00  0.19855834417E-01 0.  0.
         14    1    1    2    0    0  0.39939474959E-03  0.12863248847E-01 -0.19922771014E-01  0.23717915000E-01  0.00000000000E+00 0. -1.
     999901    1    3    3    0    0  0.16056495163E-03 -0.13600001808E+00 -0.15393098186E-01  0.89058013574E+00  0.88000000000E+00 0. -1.
        -11    1    4    4    0    0 -0.26982398853E-02  0.11191530086E-01  0.89806338872E-02  0.14609714240E-01  0.51100000000E-03 0.  1.
         11    1    4    4    0    0  0.21382801840E-02  0.11194523915E+00  0.26335235312E-01  0.11502223502E+00  0.51100000000E-03 0. -1.
</event>
<event>
 8    1  0.1166736E+005  0.1043930E+01  0.7957747E-01            NaN
         13   -1    0    0    0    0  0.00000000000E+00  0.00000000000E+00  0.74505805969E-08  0.10566000000E+00  0.10566000000E+00 0. -1.
     999900   -1    0    0    0    0 -0.00000000000E+00 -0.00000000000E+00 -0.74505805969E-08  0.93827000000E+00  0.93827000000E+00 0.  1.
     999902    2    1    2    0    0  0.19835278992E-01 -0.84423364594E-02 -0.57587583356E-03  0.10223651450E+01  0.10221376848E+01 0.  0.
     999903    2    3    3    0    0  0.65317734161E-02  0.12920376992E+00  0.12850096185E-01  0.13146465080E+00  0.19533335958E-01 0.  0.
         14    1    1    2    0    0 -0.19835278992E-01  0.84423364594E-02  0.57587583356E-03  0.21564854986E-01  0.00000000000E+00 0.  1.
     999901    1    3    3    0    0  0.13303505576E-01 -0.13764610638E+00 -0.13425972018E-01  0.89090049421E+00  0.88000000000E+00 0.  1.
        -11    1    4    4    0    0  0.54798865162E-03  0.55215656872E-01  0.14932137798E-01  0.57204011360E-01  0.51100000000E-03 0. -1.
         11    1    4    4    0    0  0.59837847644E-02  0.73988113046E-01 -0.20820416137E-02  0.74260639443E-01  0.51100000000E-03 0.  1.
</event>
<event>
 8    1  0.1166736E+005  0.1043930E+01  0.7957747E-01            NaN
         13   -1    0    0    0    0  0.00000000000E+00  0.00000000000E+00  0.74505805969E-08  0.10566000000E+00  0.10566000000E+00 0.  1.
     999900   -1    0    0    0    0 -0.00000000000E+00 -0.00000000000E+00 -0.74505805969E-08  0.93827000000E+00  0.93827000000E+00 0. -1.
     999902    2    1    2    0    0 -0.10206801010E-01  0.17945354377E-01  0.10375380523E-01  0.10208245233E+01  0.10205630036E+01 0.  0.
     999903    2    3    3    0    0 -0.76662428252E-01 -0.46405783163E-01 -0.92226338460E-01  0.13004703596E+00  0.19388384124E-01 0.  0.
         14    1    1    2    0    0  0.10206801010E-01 -0.17945354377E-01 -0.10375380523E-01  0.23105476657E-01  0.00000000000E+00 0.  1.
     999901    1    3    3    0    0  0.66455627243E-01  0.64351137540E-01  0.10260171898E+00  0.89077748739E+00  0.88000000000E+00 0.  1.
        -11    1    4    4    0    0 -0.26956549891E-01 -0.27018244079E-01 -0.34675880558E-01  0.51568584512E-01  0.51100000000E-03 0.  1.
         11    1    4    4    0    0 -0.49705878361E-01 -0.19387539084E-01 -0.57550457902E-01  0.78478451445E-01  0.51100000000E-03 0. -1.
</event>
<event>
 8    1  0.1166736E+005  0.1043930E+01  0.7957747E-01            NaN
         13   -1    0    0    0    0  0.00000000000E+00  0.00000000000E+00  0.74505805969E-08  0.10566000000E+00  0.10566000000E+00 0.  1.
     999900   -1    0    0    0    0 -0.00000000000E+00 -0.00000000000E+00 -0.74505805969E-08  0.93827000000E+00  0.93827000000E+00 0.  1.
     999902    2    1    2    0    0 -0.14162390480E-01 -0.29263699473E-02 -0.19064507503E-01  0.10200010972E+01  0.10197203763E+01 0.  0.
     999903    2    3    3    0    0 -0.42529033864E-01  0.12180253285E+00 -0.46332122978E-02  0.13063602704E+00  0.19993228257E-01 0.  0.
         14    1    1    2    0    0  0.14162390480E-01  0.29263699473E-02  0.19064507503E-01  0.23928902848E-01  0.00000000000E+00 0.  1.
     999901    1    3    3    0    0  0.28366643384E-01 -0.12472890279E+00 -0.14431295205E-01  0.88936507011E+00  0.88000000000E+00 0. -1.
        -11    1    4    4    0    0 -0.27139676443E-01  0.77799535998E-01 -0.12550294583E-01  0.83349270267E-01  0.51100000000E-03 0. -1.
         11    1    4    4    0    0 -0.15389357421E-01  0.44002996848E-01  0.79170822848E-02  0.47286756776E-01  0.51100000000E-03 0.  1.
</event>
<event>
 8    1  0.1166736E+005  0.1043930E+01  0.7957747E-01            NaN
         13   -1    0    0    0    0  0.00000000000E+00  0.00000000000E+00  0.74505805969E-08  0.10566000000E+00  0.10566000000E+00 0. -1.
     999900   -1    0    0    0    0 -0.00000000000E+00 -0.00000000000E+00 -0.74505805969E-08  0.93827000000E+00  0.93827000000E+00 0.  1.
     999902    2    1    2    0    0  0.14500132589E-01 -0.14205011510E-01 -0.11571173707E-01  0.10205648923E+01  0.10202973935E+01 0.  0.
     999903    2    3    3    0    0  0.10691519411E+00  0.25161066999E-01  0.68942918800E-01  0.13119840382E+00  0.19898670511E-01 0.  0.
         14    1    1    2    0    0 -0.14500132589E-01  0.14205011510E-01  0.11571173707E-01  0.23365107705E-01  0.00000000000E+00 0. -1.
     999901    1    3    3    0    0 -0.92415061520E-01 -0.39366078510E-01 -0.80514092507E-01  0.88936648848E+00  0.88000000000E+00 0.  1.
        -11    1    4    4    0    0  0.93372308084E-01  0.23705050552E-01  0.67197202237E-01  0.11745655558E+00  0.51100000000E-03 0. -1.
         11    1    4    4    0    0  0.13542886025E-01  0.14560164476E-02  0.17457165630E-02  0.13741848242E-01  0.51100000000E-03 0.  1.
</event>
<event>
 8    1  0.1166736E+005  0.1043930E+01  0.7957747E-01            NaN
         13   -1    0    0    0    0  0.00000000000E+00  0.00000000000E+00  0.74505805969E-08  0.10566000000E+00  0.10566000000E+00 0.  1.
     999900   -1    0    0    0    0 -0.00000000000E+00 -0.00000000000E+00 -0.74505805969E-08  0.93827000000E+00  0.93827000000E+00 0.  1.
     999902    2    1    2    0    0 -0.18184138470E-01  0.22896141648E-02  0.12063209736E-01  0.10219885722E+01  0.10217530110E+01 0.  0.
     999903    2    3    3    0    0  0.28164967613E-01 -0.11503624215E+00  0.54770624670E-01  0.13196749408E+00  0.19722975399E-01 0.  0.
         14    1    1    2    0    0  0.18184138470E-01 -0.22896141648E-02 -0.12063209736E-01  0.21941427803E-01  0.00000000000E+00 0.  1.
     999901    1    3    3    0    0 -0.46349106082E-01  0.11732585632E+00 -0.42707414934E-01  0.89002107811E+00  0.88000000000E+00 0.  1.
        -11    1    4    4    0    0  0.20528389333E-01 -0.92219772017E-01  0.51721325736E-01  0.10770913506E+00  0.51100000000E-03 0. -1.
         11    1    4    4    0    0  0.76365782798E-02 -0.22816470136E-01  0.30492989339E-02  0.24258359019E-01  0.51100000000E-03 0.  1.
</event>
<event>
 8    1  0.1166736E+005  0.1043930E+01  0.7957747E-01            NaN
         13   -1    0    0    0    0  0.00000000000E+00  0.00000000000E+00  0.74505805969E-08  0.10566000000E+00  0.10566000000E+00 0. -1.
     999900   -1    0    0    0    0 -0.00000000000E+00 -0.00000000000E+00 -0.74505805969E-08  0.93827000000E+00  0.93827000000E+00 0.  1.
     999902    2    1    2    0    0  0.71596337869E-02 -0.19101355321E-01 -0.70517551386E-02  0.10223464558E+01  0.10221185970E+01 0.  0.
     999903    2    3    3    0    0  0.12199284616E+00 -0.51645958052E-01 -0.82119480380E-02  0.13428836990E+00  0.20405163605E-01 0.  0.
         14    1    1    2    0    0 -0.71596337869E-02  0.19101355321E-01  0.70517551386E-02  0.21583544231E-01  0.00000000000E+00 0. -1.
     999901    1    3    3    0    0 -0.11483321237E+00  0.32544602732E-01  0.11601928994E-02  0.88805808587E+00  0.88000000000E+00 0.  1.
        -11    1    4    4    0    0  0.72633391262E-01 -0.32396929678E-01 -0.14799904354E-01  0.80897891621E-01  0.51100000000E-03 0. -1.
         11    1    4    4    0    0  0.49359454899E-01 -0.19249028375E-01  0.65879563165E-02  0.53390478278E-01  0.51100000000E-03 0.  1.
</event>
<event>
 8    1  0.1166736E+005  0.1043930E+01  0.7957747E-01            NaN
         13   -1    0    0    0    0  0.00000000000E+00  0.00000000000E+00  0.74505805969E-08  0.10566000000E+00  0.10566000000E+00 0. -1.
     999900   -1    0    0    0    0 -0.00000000000E+00 -0.00000000000E+00 -0.74505805969E-08  0.93827000000E+00  0.93827000000E+00 0.  1.
     999902    2    1    2    0    0  0.21226116123E-01 -0.43775563954E-02 -0.94182596394E-02  0.10202992019E+01  0.10200255128E+01 0.  0.
     999903    2    3    3    0    0 -0.10646962140E+00 -0.64212980198E-01 -0.28111934306E-01  0.12887565899E+00  0.18962265805E-01 0.  0.
         14    1    1    2    0    0 -0.21226116123E-01  0.43775563954E-02  0.94182596394E-02  0.23630798131E-01  0.00000000000E+00 0.  1.
     999901    1    3    3    0    0  0.12769573752E+00  0.59835423802E-01  0.18693674667E-01  0.89142354288E+00  0.88000000000E+00 0. -1.
        -11    1    4    4    0    0 -0.12198058216E-01 -0.54349328284E-02 -0.90924441953E-02  0.16163687127E-01  0.51100000000E-03 0. -1.
         11    1    4    4    0    0 -0.94271563179E-01 -0.58778047369E-01 -0.19019490111E-01  0.11271197187E+00  0.51100000000E-03 0.  1.
</event>
<event>
 8    1  0.1166736E+005  0.1043930E+01  0.7957747E-01            NaN
         13   -1    0    0    0    0  0.00000000000E+00  0.00000000000E+00  0.74505805969E-08  0.10566000000E+00  0.10566000000E+00 0.  1.
     999900   -1    0    0    0    0 -0.00000000000E+00 -0.00000000000E+00 -0.74505805969E-08  0.93827000000E+00  0.93827000000E+00 0.  1.
     999902    2    1    2    0    0  0.17990847264E-01  0.82492784109E-02 -0.12158841020E-01  0.10207015994E+01  0.10204372575E+01 0.  0.
     999903    2    3    3    0    0  0.18187167376E-01  0.15841703693E-01  0.12597431699E+00  0.12989384640E+00  0.20521943324E-01 0.  0.
         14    1    1    2    0    0 -0.17990847264E-01 -0.82492784109E-02  0.12158841020E-01  0.23228400602E-01  0.00000000000E+00 0.  1.
     999901    1    3    3    0    0 -0.19632011158E-03 -0.75924252825E-02 -0.13813315801E+00  0.89080775300E+00  0.88000000000E+00 0.  1.
        -11    1    4    4    0    0  0.18840579077E-01  0.41588811748E-02  0.65008645062E-01  0.67813337673E-01  0.51100000000E-03 0.  1.
         11    1    4    4    0    0 -0.65341170107E-03  0.11682822519E-01  0.60965671928E-01  0.62080508725E-01  0.51100000000E-03 0. -1.
</event>
<event>
 8    1  0.1166736E+005  0.1043930E+01  0.7957747E-01            NaN
         13   -1    0    0    0    0  0.00000000000E+00  0.00000000000E+00  0.74505805969E-08  0.10566000000E+00  0.10566000000E+00 0. -1.
     999900   -1    0    0    0    0 -0.00000000000E+00 -0.00000000000E+00 -0.74505805969E-08  0.93827000000E+00  0.93827000000E+00 0.  1.
     999902    2    1    2    0    0  0.11569280420E-01  0.18536645734E-01  0.96649581647E-02  0.10200371789E+01  0.10197573140E+01 0.  0.
     999903    2    3    3    0    0 -0.11829130097E+00  0.41080705508E-01 -0.26367274829E-01  0.12949221818E+00  0.19812751833E-01 0.  0.
         14    1    1    2    0    0 -0.11569280420E-01 -0.18536645734E-01 -0.96649581647E-02  0.23892821115E-01  0.00000000000E+00 0.  1.
     999901    1    3    3    0    0  0.12986058139E+00 -0.22544059774E-01  0.36032232994E-01  0.89054496071E+00  0.88000000000E+00 0. -1.
        -11    1    4    4    0    0 -0.52133379981E-01  0.25777649970E-01 -0.53427569435E-02  0.58405331254E-01  0.51100000000E-03 0.  1.
         11    1    4    4    0    0 -0.66157920992E-01  0.15303055538E-01 -0.21024517885E-01  0.71086886921E-01  0.51100000000E-03 0. -1.
</event>
<event>
 8    1  0.1166736E+005  0.1043930E+01  0.7957747E-01            NaN
         13   -1    0    0    0    0  0.00000000000E+00  0.00000000000E+00  0.74505805969E-08  0.10566000000E+00  0.10566000000E+00 0. -1.
     999900   -1    0    0    0    0 -0.00000000000E+00 -0.00000000000E+00 -0.74505805969E-08  0.93827000000E+00  0.93827000000E+00 0.  1.
     999902    2    1    2    0    0 -0.14228267603E-01 -0.96742640781E-02  0.17058949369E-01  0.10197010351E+01  0.10194131441E+01 0.  0.
     999903    2    3    3    0    0  0.11353085015E+00 -0.38237729643E-01 -0.42264120265E-01  0.12804107175E+00  0.16027547814E-01 0.  0.
         14    1    1    2    0    0  0.14228267603E-01  0.96742640781E-02 -0.17058949369E-01  0.24228964856E-01  0.00000000000E+00 0.  1.
     999901    1    3    3    0    0 -0.12775911775E+00  0.28563465565E-01  0.59323069635E-01  0.89165996340E+00  0.88000000000E+00 0. -1.
        -11    1    4    4    0    0  0.34129117022E-01 -0.41219447550E-02 -0.10193414827E-01  0.35860199164E-01  0.51100000000E-03 0. -1.
         11    1    4    4    0    0  0.79401733125E-01 -0.34115784888E-01 -0.32070705439E-01  0.92180872583E-01  0.51100000000E-03 0.  1.
</event>
<event>
 8    1  0.1166736E+005  0.1043930E+01  0.7957747E-01            NaN
         13   -1    0    0    0    0  0.00000000000E+00  0.00000000000E+00  0.74505805969E-08  0.10566000000E+00  0.10566000000E+00 0. -1.
     999900   -1    0    0    0    0 -0.00000000000E+00 -0.00000000000E+00 -0.74505805969E-08  0.93827000000E+00  0.93827000000E+00 0.  1.
     999902    2    1    2    0    0  0.48866850544E-02  0.18581322681E-01  0.13268902756E-01  0.10205802886E+01  0.10203131462E+01 0.  0.
     999903    2    3    3    0    0 -0.37258461141E-01  0.49468895103E-02 -0.12185999861E+00  0.12916459929E+00  0.20517548705E-01 0.  0.
         14    1    1    2    0    0 -0.48866850544E-02 -0.18581322681E-01 -0.13268902756E-01  0.23349711427E-01  0.00000000000E+00 0.  1.
     999901    1    3    3    0    0  0.42145146196E-01  0.13634433171E-01  0.13512890137E+00  0.89141568928E+00  0.88000000000E+00 0. -1.
        -11    1    4    4    0    0 -0.28078883210E-01 -0.50537283841E-02 -0.92766037313E-01  0.97055461735E-01  0.51100000000E-03 0.  1.
         11    1    4    4    0    0 -0.91795779313E-02  0.10000617894E-01 -0.29093961301E-01  0.32109137554E-01  0.51100000000E-03 0. -1.
</event>
<event>
 8    1  0.1166736E+005  0.1043930E+01  0.7957747E-01            NaN
         13   -1    0    0    0    0  0.00000000000E+00  0.00000000000E+00  0.74505805969E-08  0.10566000000E+00  0.10566000000E+00 0. -1.
     999900   -1    0    0    0    0 -0.00000000000E+00 -0.00000000000E+00 -0.74505805969E-08  0.93827000000E+00  0.93827000000E+00 0.  1.
     999902    2    1    2    0    0 -0.14290254486E-01 -0.14118775345E-01 -0.15244790553E-01  0.10187118552E+01  0.10183996706E+01 0.  0.
     999903    2    3    3    0    0 -0.61024877646E-01 -0.21073683858E-01  0.10946140802E+00  0.12866459140E+00  0.20115700125E-01 0.  0.
         14    1    1    2    0    0  0.14290254486E-01  0.14118775345E-01  0.15244790553E-01  0.25218144847E-01  0.00000000000E+00 0. -1.
     999901    1    3    3    0    0  0.46734623160E-01  0.69549085121E-02 -0.12470619857E+00  0.89004726375E+00  0.88000000000E+00 0. -1.
        -11    1    4    4    0    0 -0.25557421541E-01 -0.19436269132E-01  0.51646382529E-01  0.60815789914E-01  0.51100000000E-03 0. -1.
         11    1    4    4    0    0 -0.35467456105E-01 -0.16374147251E-02  0.57815025489E-01  0.67848801484E-01  0.51100000000E-03 0.  1.
</event>
<event>
 8    1  0.1166736E+005  0.1043930E+01  0.7957747E-01            NaN
         13   -1    0    0    0    0  0.00000000000E+00  0.00000000000E+00  0.74505805969E-08  0.10566000000E+00  0.10566000000E+00 0. -1.
     999900   -1    0    0    0    0 -0.00000000000E+00 -0.00000000000E+00 -0.74505805969E-08  0.93827000000E+00  0.93827000000E+00 0. -1.
     999902    2    1    2    0    0  0.22029671605E-01 -0.69718512230E-02  0.68401558226E-02  0.10198322642E+01  0.10195475203E+01 0.  0.
     999903    2    3    3    0    0 -0.95369736540E-01 -0.79530456374E-01  0.27713157526E-01  0.12883111130E+00  0.20222660553E-01 0.  0.
         14    1    1    2    0    0 -0.22029671605E-01  0.69718512230E-02 -0.68401558226E-02  0.24097735831E-01  0.00000000000E+00 0.  1.
     999901    1    3    3    0    0  0.11739940815E+00  0.72558605151E-01 -0.20873001704E-01  0.89100115287E+00  0.88000000000E+00 0. -1.
        -11    1    4    4    0    0 -0.89563089685E-01 -0.79610088657E-01  0.27744702693E-01  0.12300139389E+00  0.51100000000E-03 0.  1.
         11    1    4    4    0    0 -0.58066468553E-02  0.79632282893E-04 -0.31545167001E-04  0.58297174117E-02  0.51100000000E-03 0. -1.
</event>
<event>
 8    1  0.1166736E+005  0.1043930E+01  0.7957747E-01            NaN
         13   -1    0    0    0    0  0.00000000000E+00  0.00000000000E+00  0.74505805969E-08  0.10566000000E+00  0.10566000000E+00 0.  1.
     999900   -1    0    0    0    0 -0.00000000000E+00 -0.00000000000E+00 -0.74505805969E-08  0.93827000000E+00  0.93827000000E+00 0. -1.
     999902    2    1    2    0    0  0.15298770285E-01  0.11933387224E-01  0.14796788687E-01  0.10195291177E+01  0.10192370768E+01 0.  0.
     999903    2    3    3    0    0  0.29915473122E-01 -0.12307232454E+00 -0.12345911855E-01  0.12869977577E+00  0.19221814240E-01 0.  0.
         14    1    1    2    0    0 -0.15298770285E-01 -0.11933387224E-01 -0.14796788687E-01  0.24400882327E-01  0.00000000000E+00 0. -1.
     999901    1    3    3    0    0 -0.14616702837E-01  0.13500571176E+00  0.27142700542E-01  0.89082934191E+00  0.88000000000E+00 0. -1.
        -11    1    4    4    0    0  0.17121089888E-01 -0.97781783835E-01 -0.14251731122E-01  0.10028849351E+00  0.51100000000E-03 0.  1.
         11    1    4    4    0    0  0.12794383234E-01 -0.25290540706E-01  0.19058192668E-02  0.28411282259E-01  0.51100000000E-03 0. -1.
</event>
<event>
 8    1  0.1166736E+005  0.1043930E+01  0.7957747E-01            NaN
         13   -1    0    0    0    0  0.00000000000E+00  0.00000000000E+00  0.74505805969E-08  0.10566000000E+00  0.10566000000E+00 0.  1.
     999900   -1    0    0    0    0 -0.00000000000E+00 -0.00000000000E+00 -0.74505805969E-08  0.93827000000E+00  0.93827000000E+00 0. -1.
     999902    2    1    2    0    0 -0.11531408400E-02 -0.77689186662E-02  0.19307734724E-01  0.10230859493E+01  0.10228735920E+01 0.  0.
     999903    2    3    3    0    0 -0.10245250755E+00 -0.50474083179E-01  0.67703432095E-01  0.13492637109E+00  0.24025434882E-01 0.  0.
         14    1    1    2    0    0  0.11531408400E-02  0.77689186662E-02 -0.19307734724E-01  0.20844050739E-01  0.00000000000E+00 0. -1.
     999901    1    3    3    0    0  0.10129936671E+00  0.42705164512E-01 -0.48395697371E-01  0.88815957817E+00  0.88000000000E+00 0. -1.
        -11    1    4    4    0    0 -0.66955515666E-01 -0.20167462308E-01  0.43385207362E-01  0.82294015292E-01  0.51100000000E-03 0. -1.
         11    1    4    4    0    0 -0.35496991889E-01 -0.30306620870E-01  0.24318224733E-01  0.52632355799E-01  0.51100000000E-03 0.  1.
</event>
<event>
 8    1  0.1166736E+005  0.1043930E+01  0.7957747E-01            NaN
         13   -1    0    0    0    0  0.00000000000E+00  0.00000000000E+00  0.74505805969E-08  0.10566000000E+00  0.10566000000E+00 0. -1.
     999900   -1    0    0    0    0 -0.00000000000E+00 -0.00000000000E+00 -0.74505805969E-08  0.93827000000E+00  0.93827000000E+00 0.  1.
     999902    2    1    2    0    0  0.96272507984E-02  0.10190353339E-02  0.21424282025E-01  0.10204199542E+01  0.10201490875E+01 0.  0.
     999903    2    3    3    0    0 -0.62718824722E-01 -0.67896017093E-01 -0.87128917107E-01  0.12813802787E+00  0.16863744527E-01 0.  0.
         14    1    1    2    0    0 -0.96272507984E-02 -0.10190353339E-02 -0.21424282025E-01  0.23510045751E-01  0.00000000000E+00 0.  1.
     999901    1    3    3    0    0  0.72346075520E-01  0.68915052427E-01  0.10855319913E+00  0.89228192638E+00  0.88000000000E+00 0. -1.
        -11    1    4    4    0    0 -0.23725351834E-01 -0.34649347429E-01 -0.47158026486E-01  0.63147527109E-01  0.51100000000E-03 0.  1.
         11    1    4    4    0    0 -0.38993472888E-01 -0.33246669664E-01 -0.39970890621E-01  0.64990500765E-01  0.51100000000E-03 0. -1.
</event>
<event>
 8    1  0.1166736E+005  0.1043930E+01  0.7957747E-01            NaN
         13   -1    0    0    0    0  0.00000000000E+00  0.00000000000E+00  0.74505805969E-08  0.10566000000E+00  0.10566000000E+00 0. -1.
     999900   -1    0    0    0    0 -0.00000000000E+00 -0.00000000000E+00 -0.74505805969E-08  0.93827000000E+00  0.93827000000E+00 0. -1.
     999902    2    1    2    0    0  0.24408957906E-02 -0.44575046031E-02  0.22539117607E-01  0.10208250407E+01  0.10205635329E+01 0.  0.
     999903    2    3    3    0    0 -0.79861601957E-01  0.15575409278E-01  0.10366184720E+00  0.13304358339E+00  0.18285176351E-01 0.  0.
         14    1    1    2    0    0 -0.24408957906E-02  0.44575046031E-02 -0.22539117607E-01  0.23104959253E-01  0.00000000000E+00 0.  1.
     999901    1    3    3    0    0  0.82302497748E-01 -0.20032913881E-01 -0.81122729594E-01  0.88778145736E+00  0.88000000000E+00 0. -1.
        -11    1    4    4    0    0 -0.51474323689E-01  0.86620221626E-02  0.51945372584E-01  0.73642511371E-01  0.51100000000E-03 0. -1.
         11    1    4    4    0    0 -0.28387278268E-01  0.69133871158E-02  0.51716474617E-01  0.59401072017E-01  0.51100000000E-03 0.  1.
</event>
<event>
 8    1  0.1166736E+005  0.1043930E+01  0.7957747E-01            NaN
         13   -1    0    0    0    0  0.00000000000E+00  0.00000000000E+00  0.74505805969E-08  0.10566000000E+00  0.10566000000E+00 0.  1.
     999900   -1    0    0    0    0 -0.00000000000E+00 -0.00000000000E+00 -0.74505805969E-08  0.93827000000E+00  0.93827000000E+00 0. -1.
     999902    2    1    2    0    0  0.13911523163E-01 -0.89796836869E-02 -0.16735729322E-01  0.10203874888E+01  0.10201158648E+01 0.  0.
     999903    2    3    3    0    0  0.49779278102E-02 -0.82920811003E-02 -0.13105134197E+00  0.13294828460E+00  0.20180529514E-01 0.  0.
         14    1    1    2    0    0 -0.13911523163E-01  0.89796836869E-02  0.16735729322E-01  0.23542511161E-01  0.00000000000E+00 0.  1.
     999901    1    3    3    0    0  0.89335953527E-02 -0.68760258657E-03  0.11431561265E+00  0.88743920424E+00  0.88000000000E+00 0.  1.
        -11    1    4    4    0    0  0.67170054090E-02 -0.14401047289E-01 -0.99173649562E-01  0.10043994332E+00  0.51100000000E-03 0. -1.
         11    1    4    4    0    0 -0.17390775988E-02  0.61089661886E-02 -0.31877692409E-01  0.32508341286E-01  0.51100000000E-03 0.  1.
</event>
<event>
 8    1  0.1166736E+005  0.1043930E+01  0.7957747E-01            NaN
         13   -1    0    0    0    0  0.00000000000E+00  0.00000000000E+00  0.74505805969E-08  0.10566000000E+00  0.10566000000E+00 0.  1.
     999900   -1    0    0    0    0 -0.00000000000E+00 -0.00000000000E+00 -0.74505805969E-08  0.93827000000E+00  0.93827000000E+00 0. -1.
     999902    2    1    2    0    0 -0.23431647313E-01 -0.32705468370E-02  0.36594343276E-02  0.10199898657E+01  0.10197088781E+01 0.  0.
     999903    2    3    3    0    0 -0.83640228571E-01  0.13765696802E-01  0.10071800307E+00  0.13244512165E+00  0.14574356371E-01 0.  0.
         14    1    1    2    0    0  0.23431647313E-01  0.32705468370E-02 -0.36594343276E-02  0.23940134336E-01  0.00000000000E+00 0. -1.
     999901    1    3    3    0    0  0.60208581258E-01 -0.17036243639E-01 -0.97058568742E-01  0.88754474401E+00  0.88000000000E+00 0. -1.
        -11    1    4    4    0    0 -0.14168508864E-01  0.67871026430E-02  0.13492424382E-01  0.20715164552E-01  0.51100000000E-03 0. -1.
         11    1    4    4    0    0 -0.69471719707E-01  0.69785941594E-02  0.87225578688E-01  0.11172995710E+00  0.51100000000E-03 0.  1.
</event>
<event>
 8    1  0.1166736E+005  0.1043930E+01  0.7957747E-01            NaN
         13   -1    0    0    0    0  0.00000000000E+00  0.00000000000E+00  0.74505805969E-08  0.10566000000E+00  0.10566000000E+00 0. -1.
     999900   -1    0    0    0    0 -0.00000000000E+00 -0.00000000000E+00 -0.74505805969E-08  0.93827000000E+00  0.93827000000E+00 0. -1.
     999902    2    1    2    0    0 -0.11958266286E-01 -0.13703096872E-01 -0.16984996564E-01  0.10190449622E+01  0.10187410711E+01 0.  0.
     999903    2    3    3    0    0  0.82218724719E-01  0.23890523292E-01  0.91121194462E-01  0.12664957091E+00  0.20158520142E-01 0.  0.
         14    1    1    2    0    0  0.11958266286E-01  0.13703096872E-01  0.16984996564E-01  0.24885037768E-01  0.00000000000E+00 0. -1.
     999901    1    3    3    0    0 -0.94176991005E-01 -0.37593620163E-01 -0.10810619103E+00  0.89239539132E+00  0.88000000000E+00 0. -1.
        -11    1    4    4    0    0  0.29442848637E-01  0.16163257982E-02  0.41177063222E-01  0.50648845017E-01  0.51100000000E-03 0.  1.
         11    1    4    4    0    0  0.52775876082E-01  0.22274197493E-01  0.49944131240E-01  0.76000725895E-01  0.51100000000E-03 0. -1.
</event>
<event>
 8    1  0.1166736E+005  0.1043930E+01  0.7957747E-01            NaN
         13   -1    0    0    0    0  0.00000000000E+00  0.00000000000E+00  0.74505805969E-08  0.10566000000E+00  0.10566000000E+00 0. -1.
     999900   -1    0    0    0    0 -0.00000000000E+00 -0.00000000000E+00 -0.74505805969E-08  0.93827000000E+00  0.93827000000E+00 0. -1.
     999902    2    1    2    0    0 -0.12828368615E-01 -0.18425237602E-01 -0.21042325029E-01  0.10131593019E+01  0.10126919250E+01 0.  0.
     999903    2    3    3    0    0 -0.46113792648E-01  0.56437419587E-01  0.95362113474E-01  0.12172095278E+00  0.20258170124E-01 0.  0.
         14    1    1    2    0    0  0.12828368615E-01  0.18425237602E-01  0.21042325029E-01  0.30770698150E-01  0.00000000000E+00 0. -1.
     999901    1    3    3    0    0  0.33285424033E-01 -0.74862657189E-01 -0.11640443850E+00  0.89143834907E+00  0.88000000000E+00 0. -1.
        -11    1    4    4    0    0 -0.10736824303E-01  0.17853881925E-01  0.14483147871E-01  0.25378400051E-01  0.51100000000E-03 0. -1.
         11    1    4    4    0    0 -0.35376968345E-01  0.38583537662E-01  0.80878965603E-01  0.96342552726E-01  0.51100000000E-03 0.  1.
</event>
<event>
 8    1  0.1166736E+005  0.1043930E+01  0.7957747E-01            NaN
         13   -1    0    0    0    0  0.00000000000E+00  0.00000000000E+00  0.74505805969E-08  0.10566000000E+00  0.10566000000E+00 0. -1.
     999900   -1    0    0    0    0 -0.00000000000E+00 -0.00000000000E+00 -0.74505805969E-08  0.93827000000E+00  0.93827000000E+00 0. -1.
     999902    2    1    2    0    0  0.17185541374E-01  0.14180414281E-01  0.67270556558E-02  0.10206559746E+01  0.10203905812E+01 0.  0.
     999903    2    3    3    0    0 -0.12633805461E+00 -0.10130107562E-01 -0.81501030604E-02  0.12857338091E+00  0.20019165230E-01 0.  0.
         14    1    1    2    0    0 -0.17185541374E-01 -0.14180414281E-01 -0.67270556558E-02  0.23274025421E-01  0.00000000000E+00 0.  1.
     999901    1    3    3    0    0  0.14352359598E+00  0.24310521843E-01  0.14877158716E-01  0.89208259367E+00  0.88000000000E+00 0.  1.
        -11    1    4    4    0    0 -0.42766622242E-01 -0.12971451004E-01 -0.27675490452E-02  0.44779046080E-01  0.51100000000E-03 0.  1.
         11    1    4    4    0    0 -0.83571432369E-01  0.28413434418E-02 -0.53825540152E-02  0.83794334829E-01  0.51100000000E-03 0. -1.
</event>
<event>
 8    1  0.1166736E+005  0.1043930E+01  0.7957747E-01            NaN
         13   -1    0    0    0    0  0.00000000000E+00  0.00000000000E+00  0.74505805969E-08  0.10566000000E+00  0.10566000000E+00 0. -1.
     999900   -1    0    0    0    0 -0.00000000000E+00 -0.00000000000E+00 -0.74505805969E-08  0.93827000000E+00  0.93827000000E+00 0. -1.
     999902    2    1    2    0    0 -0.24350764004E-01 -0.15858384112E-02  0.22816095412E-02  0.10194212193E+01  0.10191265584E+01 0.  0.
     999903    2    3    3    0    0 -0.12513006249E-01 -0.69061990886E-01 -0.10740579200E+00  0.12996942759E+00  0.20734368596E-01 0.  0.
         14    1    1    2    0    0  0.24350764004E-01  0.15858384112E-02 -0.22816095412E-02  0.24508780735E-01  0.00000000000E+00 0.  1.
     999901    1    3    3    0    0 -0.11837757755E-01  0.67476152475E-01  0.10968740154E+00  0.88945179168E+00  0.88000000000E+00 0.  1.
        -11    1    4    4    0    0 -0.16206184825E-02 -0.40947027190E-01 -0.76520285502E-01  0.86803805529E-01  0.51100000000E-03 0. -1.
         11    1    4    4    0    0 -0.10892387767E-01 -0.28114963696E-01 -0.30885506500E-01  0.43165622058E-01  0.51100000000E-03 0.  1.
</event>
<event>
 8    1  0.1166736E+005  0.1043930E+01  0.7957747E-01            NaN
         13   -1    0    0    0    0  0.00000000000E+00  0.00000000000E+00  0.74505805969E-08  0.10566000000E+00  0.10566000000E+00 0. -1.
     999900   -1    0    0    0    0 -0.00000000000E+00 -0.00000000000E+00 -0.74505805969E-08  0.93827000000E+00  0.93827000000E+00 0.  1.
     999902    2    1    2    0    0  0.19219340952E-01  0.14761883596E-01  0.61976289386E-02  0.10189158664E+01  0.10186087747E+01 0.  0.
     999903    2    3    3    0    0 -0.10748304515E+00 -0.54908197753E-01  0.32974511267E-01  0.12671386222E+00  0.20039194363E-01 0.  0.
         14    1    1    2    0    0 -0.19219340952E-01 -0.14761883596E-01 -0.61976289386E-02  0.25014133573E-01  0.00000000000E+00 0. -1.
     999901    1    3    3    0    0  0.12670238610E+00  0.69670081350E-01 -0.26776882329E-01  0.89220200420E+00  0.88000000000E+00 0.  1.
        -11    1    4    4    0    0 -0.47296150442E-01 -0.32773108044E-01  0.89710707906E-02  0.58238678639E-01  0.51100000000E-03 0. -1.
         11    1    4    4    0    0 -0.60186894708E-01 -0.22135089709E-01  0.24003440477E-01  0.68475183583E-01  0.51100000000E-03 0.  1.
</event>
<event>
 8    1  0.1166736E+005  0.1043930E+01  0.7957747E-01            NaN
         13   -1    0    0    0    0  0.00000000000E+00  0.00000000000E+00  0.74505805969E-08  0.10566000000E+00  0.10566000000E+00 0. -1.
     999900   -1    0    0    0    0 -0.00000000000E+00 -0.00000000000E+00 -0.74505805969E-08  0.93827000000E+00  0.93827000000E+00 0. -1.
     999902    2    1    2    0    0 -0.22997629879E-01  0.30079931349E-02  0.51686292106E-02  0.10201675563E+01  0.10198907732E+01 0.  0.
     999903    2    3    3    0    0 -0.72128884855E-01  0.10799384203E+00  0.16718493943E-01  0.13249120308E+00  0.20227825066E-01 0.  0.
         14    1    1    2    0    0  0.22997629879E-01 -0.30079931349E-02 -0.51686292106E-02  0.23762443702E-01  0.00000000000E+00 0. -1.
     999901    1    3    3    0    0  0.49131254976E-01 -0.10498584890E+00 -0.11549864732E-01  0.88767635322E+00  0.88000000000E+00 0.  1.
        -11    1    4    4    0    0 -0.42653057217E-01  0.49224038361E-01  0.22775741103E-02  0.65174670750E-01  0.51100000000E-03 0. -1.
         11    1    4    4    0    0 -0.29475827637E-01  0.58769803672E-01  0.14440919833E-01  0.67316532332E-01  0.51100000000E-03 0.  1.
</event>
<event>
 8    1  0.1166736E+005  0.1043930E+01  0.7957747E-01            NaN
         13   -1    0    0    0    0  0.00000000000E+00  0.00000000000E+00  0.74505805969E-08  0.10566000000E+00  0.10566000000E+00 0. -1.
     999900   -1    0    0    0    0 -0.00000000000E+00 -0.00000000000E+00 -0.74505805969E-08  0.93827000000E+00  0.93827000000E+00 0.  1.
     999902    2    1    2    0    0  0.30194920387E-02  0.21307025472E-01 -0.11865174872E-01  0.10193558461E+01  0.10190595919E+01 0.  0.
     999903    2    3    3    0    0  0.57443275514E-02  0.83573607064E-01 -0.10121710259E+00  0.13263812385E+00  0.18177594576E-01 0.  0.
         14    1    1    2    0    0 -0.30194920387E-02 -0.21307025472E-01  0.11865174872E-01  0.24574153930E-01  0.00000000000E+00 0. -1.
     999901    1    3    3    0    0 -0.27248355127E-02 -0.62266581592E-01  0.89351927720E-01  0.88671772222E+00  0.88000000000E+00 0. -1.
        -11    1    4    4    0    0 -0.60454719634E-02  0.41793791637E-01 -0.47156075933E-01  0.63302648989E-01  0.51100000000E-03 0. -1.
         11    1    4    4    0    0  0.11789799515E-01  0.41779815427E-01 -0.54061026660E-01  0.69335474861E-01  0.51100000000E-03 0.  1.
</event>
<event>
 8    1  0.1166736E+005  0.1043930E+01  0.7957747E-01            NaN
         13   -1    0    0    0    0  0.00000000000E+00  0.00000000000E+00  0.74505805969E-08  0.10566000000E+00  0.10566000000E+00 0. -1.
     999900   -1    0    0    0    0 -0.00000000000E+00 -0.00000000000E+00 -0.74505805969E-08  0.93827000000E+00  0.93827000000E+00 0. -1.
     999902    2    1    2    0    0 -0.20976746860E-02  0.20710578690E-01 -0.11186859815E-01  0.10202979425E+01  0.10200242239E+01 0.  0.
     999903    2    3    3    0    0 -0.10507624405E+00  0.68760990234E-01  0.34293913953E-01  0.13182626115E+00  0.20808646079E-01 0.  0.
         14    1    1    2    0    0  0.20976746860E-02 -0.20710578690E-01  0.11186859815E-01  0.23632057492E-01  0.00000000000E+00 0. -1.
     999901    1    3    3    0    0  0.10297856937E+00 -0.48050411544E-01 -0.45480773768E-01  0.88847168136E+00  0.88000000000E+00 0. -1.
        -11    1    4    4    0    0 -0.43063707118E-01  0.17108086902E-01  0.16410823518E-01  0.49160408437E-01  0.51100000000E-03 0. -1.
         11    1    4    4    0    0 -0.62012536935E-01  0.51652903332E-01  0.17883090435E-01  0.82665852710E-01  0.51100000000E-03 0.  1.
</event>
<event>
 8    1  0.1166736E+005  0.1043930E+01  0.7957747E-01            NaN
         13   -1    0    0    0    0  0.00000000000E+00  0.00000000000E+00  0.74505805969E-08  0.10566000000E+00  0.10566000000E+00 0. -1.
     999900   -1    0    0    0    0 -0.00000000000E+00 -0.00000000000E+00 -0.74505805969E-08  0.93827000000E+00  0.93827000000E+00 0.  1.
     999902    2    1    2    0    0 -0.15706640406E-01  0.13815270725E-01  0.82711519030E-02  0.10214361739E+01  0.10211884670E+01 0.  0.
     999903    2    3    3    0    0 -0.12709477420E+00  0.25179315008E-01 -0.26241968785E-01  0.13367065682E+00  0.19802121981E-01 0.  0.
         14    1    1    2    0    0  0.15706640406E-01 -0.13815270725E-01 -0.82711519030E-02  0.22493826083E-01  0.00000000000E+00 0. -1.
     999901    1    3    3    0    0  0.11138813379E+00 -0.11364044283E-01  0.34513120688E-01  0.88776551710E+00  0.88000000000E+00 0.  1.
        -11    1    4    4    0    0 -0.21949112764E-01  0.18526211376E-02  0.25637828566E-02  0.22181746093E-01  0.51100000000E-03 0. -1.
         11    1    4    4    0    0 -0.10514566144E+00  0.23326693870E-01 -0.28805751642E-01  0.11148891072E+00  0.51100000000E-03 0.  1.
</event>
<event>
 8    1  0.1166736E+005  0.1043930E+01  0.7957747E-01            NaN
         13   -1    0    0    0    0  0.00000000000E+00  0.00000000000E+00  0.74505805969E-08  0.10566000000E+00  0.10566000000E+00 0.  1.
     999900   -1    0    0    0    0 -0.00000000000E+00 -0.00000000000E+00 -0.74505805969E-08  0.93827000000E+00  0.93827000000E+00 0. -1.
     999902    2    1    2    0    0  0.10795799286E-01 -0.20804007456E-01  0.68396756969E-02  0.10195140795E+01  0.10192216742E+01 0.  0.
     999903    2    3    3    0    0 -0.24048732261E-01 -0.12570044224E+00  0.96024342847E-02  0.13259523531E+00  0.33321869409E-01 0.  0.
         14    1    1    2    0    0 -0.10795799286E-01  0.20804007456E-01 -0.68396756969E-02  0.24415920463E-01  0.00000000000E+00 0. -1.
     999901    1    3    3    0    0  0.34844531547E-01  0.10489643478E+00 -0.27627585878E-02  0.88691884423E+00  0.88000000000E+00 0.  1.
        -11    1    4    4    0    0 -0.25309538350E-01 -0.59078868828E-01 -0.46877223250E-02  0.64444715339E-01  0.51100000000E-03 0.  1.
         11    1    4    4    0    0  0.12608060894E-02 -0.66621573409E-01  0.14290156610E-01  0.68150519971E-01  0.51100000000E-03 0. -1.
</event>
<event>
 8    1  0.1166736E+005  0.1043930E+01  0.7957747E-01            NaN
         13   -1    0    0    0    0  0.00000000000E+00  0.00000000000E+00  0.74505805969E-08  0.10566000000E+00  0.10566000000E+00 0.  1.
     999900   -1    0    0    0    0 -0.00000000000E+00 -0.00000000000E+00 -0.74505805969E-08  0.93827000000E+00  0.93827000000E+00 0.  1.
     999902    2    1    2    0    0 -0.18588520475E-01  0.65345784417E-02  0.13182598023E-01  0.10202231508E+01  0.10199476765E+01 0.  0.
     999903    2    3    3    0    0  0.39889367177E-01 -0.10764060205E+00 -0.53585455082E-01  0.12841958043E+00  0.21036321443E-01 0.  0.
         14    1    1    2    0    0  0.18588520475E-01 -0.65345784417E-02 -0.13182598023E-01  0.23706849210E-01  0.00000000000E+00 0. -1.
     999901    1    3    3    0    0 -0.58477887652E-01  0.11417518049E+00  0.66768053105E-01  0.89180357036E+00  0.88000000000E+00 0. -1.
        -11    1    4    4    0    0  0.31252561582E-01 -0.75858230671E-01 -0.47867029606E-01  0.94987932972E-01  0.51100000000E-03 0.  1.
         11    1    4    4    0    0  0.86368055954E-02 -0.31782371375E-01 -0.57184254761E-02  0.33431647462E-01  0.51100000000E-03 0. -1.
</event>
<event>
 8    1  0.1166736E+005  0.1043930E+01  0.7957747E-01            NaN
         13   -1    0    0    0    0  0.00000000000E+00  0.00000000000E+00  0.74505805969E-08  0.10566000000E+00  0.10566000000E+00 0. -1.
     999900   -1    0    0    0    0 -0.00000000000E+00 -0.00000000000E+00 -0.74505805969E-08  0.93827000000E+00  0.93827000000E+00 0. -1.
     999902    2    1    2    0    0  0.20863985539E-01 -0.10446960085E-01  0.27671655778E-02  0.10204331476E+01  0.10201625883E+01 0.  0.
     999903    2    3    3    0    0 -0.66076223088E-01  0.30985655081E-01  0.10491434934E+00  0.12930503749E+00  0.19661992364E-01 0.  0.
         14    1    1    2    0    0 -0.20863985539E-01  0.10446960085E-01 -0.27671655778E-02  0.23496852404E-01  0.00000000000E+00 0.  1.
     999901    1    3    3    0    0  0.86940208627E-01 -0.41432615166E-01 -0.10214718376E+00  0.89112811011E+00  0.88000000000E+00 0.  1.
        -11    1    4    4    0    0 -0.54523758941E-01  0.16657494780E-01  0.82769483314E-01  0.10050552677E+00  0.51100000000E-03 0. -1.
         11    1    4    4    0    0 -0.11552464147E-01  0.14328160301E-01  0.22144866026E-01  0.28799510722E-01  0.51100000000E-03 0.  1.
</event>
<event>
 7    1  0.1166736E+005  0.1043930E+01  0.7957747E-01            NaN
         13   -1    0    0    0    0  0.00000000000E+00  0.00000000000E+00  0.74505805969E-08  0.10566000000E+00  0.10566000000E+00 0. -1.
     999900   -1    0    0    0    0 -0.00000000000E+00 -0.00000000000E+00 -0.74505805969E-08  0.93827000000E+00  0.93827000000E+00 0.  1.
     999903    2    1    2    0    0 -0.10492388493E-01  0.77751175808E-01  0.84936526229E-01  0.11743914574E+00  0.20552467239E-01 0.  0.
         14    1    1    2    0    0  0.14972963165E-01 -0.38153699818E-01  0.36352989239E-02  0.41147415885E-01  0.00000000000E+00 0.  1.
     999901    1    1    2    0    0 -0.44805746715E-02 -0.39597475990E-01 -0.88571825153E-01  0.88534343837E+00  0.88000000000E+00 0.  1.
        -11    1    3    3    0    0  0.14286926970E-02  0.41417522224E-01  0.55029049889E-01  0.68890563669E-01  0.51100000000E-03 0. -1.
         11    1    3    3    0    0 -0.11921081190E-01  0.36333653584E-01  0.29907476340E-01  0.48548582075E-01  0.51100000000E-03 0.  1.
</event>
<event>
 8    1  0.1166736E+005  0.1043930E+01  0.7957747E-01            NaN
         13   -1    0    0    0    0  0.00000000000E+00  0.00000000000E+00  0.74505805969E-08  0.10566000000E+00  0.10566000000E+00 0. -1.
     999900   -1    0    0    0    0 -0.00000000000E+00 -0.00000000000E+00 -0.74505805969E-08  0.93827000000E+00  0.93827000000E+00 0. -1.
     999902    2    1    2    0    0 -0.18485521968E-01  0.13444403703E-01  0.36075818190E-02  0.10207895341E+01  0.10205272127E+01 0.  0.
     999903    2    3    3    0    0 -0.10084604858E+00 -0.41801505030E-01  0.72319265261E-01  0.13255720969E+00  0.20592386318E-01 0.  0.
         14    1    1    2    0    0  0.18485521968E-01 -0.13444403703E-01 -0.36075818190E-02  0.23140465854E-01  0.00000000000E+00 0. -1.
     999901    1    3    3    0    0  0.82360526614E-01  0.55245908732E-01 -0.68711683442E-01  0.88823232446E+00  0.88000000000E+00 0. -1.
        -11    1    4    4    0    0 -0.41195276598E-01 -0.27555484353E-01  0.36258283991E-01  0.61410746705E-01  0.51100000000E-03 0.  1.
         11    1    4    4    0    0 -0.59650771984E-01 -0.14246020676E-01  0.36060981270E-01  0.71146462980E-01  0.51100000000E-03 0. -1.
</event>
<event>
 8    1  0.1166736E+005  0.1043930E+01  0.7957747E-01            NaN
         13   -1    0    0    0    0  0.00000000000E+00  0.00000000000E+00  0.74505805969E-08  0.10566000000E+00  0.10566000000E+00 0.  1.
     999900   -1    0    0    0    0 -0.00000000000E+00 -0.00000000000E+00 -0.74505805969E-08  0.93827000000E+00  0.93827000000E+00 0.  1.
     999902    2    1    2    0    0 -0.19593134978E-01 -0.10422624858E-01  0.94248586948E-02  0.10198187991E+01  0.10195337331E+01 0.  0.
     999903    2    3    3    0    0 -0.12053100259E+00  0.25482455770E-01  0.44854148161E-01  0.13261371431E+00  0.19935508004E-01 0.  0.
         14    1    1    2    0    0  0.19593134978E-01  0.10422624858E-01 -0.94248586948E-02  0.24111200895E-01  0.00000000000E+00 0. -1.
     999901    1    3    3    0    0  0.10093786761E+00 -0.35905080627E-01 -0.35429289466E-01  0.88720508479E+00  0.88000000000E+00 0. -1.
        -11    1    4    4    0    0 -0.36709254661E-01  0.15146670317E-02  0.20580190537E-01  0.42114949335E-01  0.51100000000E-03 0.  1.
         11    1    4    4    0    0 -0.83821747926E-01  0.23967788738E-01  0.24273957624E-01  0.90498764976E-01  0.51100000000E-03 0. -1.
</event>
<event>
 8    1  0.1166736E+005  0.1043930E+01  0.7957747E-01            NaN
         13   -1    0    0    0    0  0.00000000000E+00  0.00000000000E+00  0.74505805969E-08  0.10566000000E+00  0.10566000000E+00 0.  1.
     999900   -1    0    0    0    0 -0.00000000000E+00 -0.00000000000E+00 -0.74505805969E-08  0.93827000000E+00  0.93827000000E+00 0. -1.
     999902    2    1    2    0    0  0.28087693908E-02  0.22699728614E-01 -0.11926168160E-02  0.10210260877E+01  0.10207691622E+01 0.  0.
     999903    2    3    3    0    0 -0.69970102973E-01 -0.10597697301E+00 -0.59888680766E-02  0.12868228520E+00  0.19908035184E-01 0.  0.
         14    1    1    2    0    0 -0.28087693908E-02 -0.22699728614E-01  0.11926168160E-02  0.22903912319E-01  0.00000000000E+00 0. -1.
     999901    1    3    3    0    0  0.72778872363E-01  0.12867670162E+00  0.47962512606E-02  0.89234380248E+00  0.88000000000E+00 0. -1.
        -11    1    4    4    0    0 -0.68728880350E-01 -0.97356692711E-01 -0.88489899584E-02  0.11950125670E+00  0.51100000000E-03 0.  1.
         11    1    4    4    0    0 -0.12412226223E-02 -0.86202802980E-02  0.28601218818E-02  0.91810284932E-02  0.51100000000E-03 0. -1.
</event>
<event>
 8    1  0.1166736E+005  0.1043930E+01  0.7957747E-01            NaN
         13   -1    0    0    0    0  0.00000000000E+00  0.00000000000E+00  0.74505805969E-08  0.10566000000E+00  0.10566000000E+00 0.  1.
     999900   -1    0    0    0    0 -0.00000000000E+00 -0.00000000000E+00 -0.74505805969E-08  0.93827000000E+00  0.93827000000E+00 0. -1.
     999902    2    1    2    0    0  0.15996040773E-01  0.11563376713E-01 -0.13791786561E-01  0.10198509972E+01  0.10195667011E+01 0.  0.
     999903    2    3    3    0    0 -0.98758464010E-01  0.47362117722E-02  0.78343691587E-01  0.12760430880E+00  0.19221334430E-01 0.  0.
         14    1    1    2    0    0 -0.15996040773E-01 -0.11563376713E-01  0.13791786561E-01  0.24079002844E-01  0.00000000000E+00 0.  1.
     999901    1    3    3    0    0  0.11475450478E+00  0.68271649409E-02 -0.92135478148E-01  0.89224668836E+00  0.88000000000E+00 0. -1.
        -11    1    4    4    0    0 -0.64426496198E-01 -0.56702211152E-02  0.53876387135E-01  0.84177497180E-01  0.51100000000E-03 0.  1.
         11    1    4    4    0    0 -0.34331967812E-01  0.10406432887E-01  0.24467304452E-01  0.43426811619E-01  0.51100000000E-03 0. -1.
</event>
<event>
 8    1  0.1166736E+005  0.1043930E+01  0.7957747E-01            NaN
         13   -1    0    0    0    0  0.00000000000E+00  0.00000000000E+00  0.74505805969E-08  0.10566000000E+00  0.10566000000E+00 0. -1.
     999900   -1    0    0    0    0 -0.00000000000E+00 -0.00000000000E+00 -0.74505805969E-08  0.93827000000E+00  0.93827000000E+00 0.  1.
     999902    2    1    2    0    0  0.55896001200E-02 -0.56472163730E-03 -0.23711748960E-01  0.10195617916E+01  0.10192705418E+01 0.  0.
     999903    2    3    3    0    0  0.55246961117E-01 -0.62200740792E-01 -0.10124975977E+00  0.13261365591E+00  0.20339838061E-01 0.  0.
         14    1    1    2    0    0 -0.55896001200E-02  0.56472163730E-03  0.23711748960E-01  0.24368208362E-01  0.00000000000E+00 0. -1.
     999901    1    3    3    0    0 -0.49657360997E-01  0.61636019155E-01  0.77538010805E-01  0.88694813573E+00  0.88000000000E+00 0. -1.
        -11    1    4    4    0    0  0.40674868460E-01 -0.33214205401E-01 -0.70505628514E-01  0.87914351148E-01  0.51100000000E-03 0. -1.
         11    1    4    4    0    0  0.14572092657E-01 -0.28986535391E-01 -0.30744131251E-01  0.44699304757E-01  0.51100000000E-03 0.  1.
</event>
<event>
 8    1  0.1166736E+005  0.1043930E+01  0.7957747E-01            NaN
         13   -1    0    0    0    0  0.00000000000E+00  0.00000000000E+00  0.74505805969E-08  0.10566000000E+00  0.10566000000E+00 0.  1.
     999900   -1    0    0    0    0 -0.00000000000E+00 -0.00000000000E+00 -0.74505805969E-08  0.93827000000E+00  0.93827000000E+00 0.  1.
     999902    2    1    2    0    0  0.99546403682E-02  0.11446948683E-01  0.16249277423E-01  0.10217001436E+01  0.10214582796E+01 0.  0.
     999903    2    3    3    0    0 -0.30662421866E-01 -0.92553815866E-01 -0.82339549127E-01  0.12918366672E+00  0.20055559102E-01 0.  0.
         14    1    1    2    0    0 -0.99546403682E-02 -0.11446948683E-01 -0.16249277423E-01  0.22229856405E-01  0.00000000000E+00 0. -1.
     999901    1    3    3    0    0  0.40617062234E-01  0.10400076455E+00  0.98588826550E-01  0.89251647687E+00  0.88000000000E+00 0. -1.
        -11    1    4    4    0    0 -0.16945183474E-01 -0.40426646538E-01 -0.24914727064E-01  0.50422789876E-01  0.51100000000E-03 0. -1.
         11    1    4    4    0    0 -0.13717238392E-01 -0.52127169328E-01 -0.57424822063E-01  0.78760876844E-01  0.51100000000E-03 0.  1.
</event>
<event>
 8    1  0.1166736E+005  0.1043930E+01  0.7957747E-01            NaN
         13   -1    0    0    0    0  0.00000000000E+00  0.00000000000E+00  0.74505805969E-08  0.10566000000E+00  0.10566000000E+00 0.  1.
     999900   -1    0    0    0    0 -0.00000000000E+00 -0.00000000000E+00 -0.74505805969E-08  0.93827000000E+00  0.93827000000E+00 0.  1.
     999902    2    1    2    0    0  0.16913928889E-01  0.50160219273E-02 -0.11452264532E-01  0.10228967922E+01  0.10226805228E+01 0.  0.
     999903    2    3    3    0    0  0.46821196261E-01  0.42370388232E-01 -0.11739782420E+00  0.13525144923E+00  0.22874246975E-01 0.  0.
         14    1    1    2    0    0 -0.16913928889E-01 -0.50160219273E-02  0.11452264532E-01  0.21033207776E-01  0.00000000000E+00 0.  1.
     999901    1    3    3    0    0 -0.29907267373E-01 -0.37354366304E-01  0.10594555967E+00  0.88764534299E+00  0.88000000000E+00 0. -1.
        -11    1    4    4    0    0  0.25348689068E-01  0.34635753566E-01 -0.62744254077E-01  0.76021667985E-01  0.51100000000E-03 0. -1.
         11    1    4    4    0    0  0.21472507194E-01  0.77346346657E-02 -0.54653570121E-01  0.59229781247E-01  0.51100000000E-03 0.  1.
</event>
<event>
 8    1  0.1166736E+005  0.1043930E+01  0.7957747E-01            NaN
         13   -1    0    0    0    0  0.00000000000E+00  0.00000000000E+00  0.74505805969E-08  0.10566000000E+00  0.10566000000E+00 0.  1.
     999900   -1    0    0    0    0 -0.00000000000E+00 -0.00000000000E+00 -0.74505805969E-08  0.93827000000E+00  0.93827000000E+00 0.  1.
     999902    2    1    2    0    0 -0.15843312274E-01  0.81713953782E-02 -0.10375581703E-02  0.10260733829E+01  0.10259179930E+01 0.  0.
     999903    2    3    3    0    0 -0.92679914309E-01 -0.44682621154E-01  0.87936153191E-01  0.13668385534E+00  0.19068458842E-01 0.  0.
         14    1    1    2    0    0  0.15843312274E-01 -0.81713953782E-02  0.10375581703E-02  0.17856617070E-01  0.00000000000E+00 0.  1.
     999901    1    3    3    0    0  0.76836602035E-01  0.52854016532E-01 -0.88973711361E-01  0.88938952759E+00  0.88000000000E+00 0.  1.
        -11    1    4    4    0    0 -0.70133089709E-01 -0.34135182327E-01  0.76612641172E-01  0.10933260654E+00  0.51100000000E-03 0. -1.
         11    1    4    4    0    0 -0.22546824600E-01 -0.10547438827E-01  0.11323512019E-01  0.27351248798E-01  0.51100000000E-03 0.  1.
</event>
<event>
 8    1  0.1166736E+005  0.1043930E+01  0.7957747E-01            NaN
         13   -1    0    0    0    0  0.00000000000E+00  0.00000000000E+00  0.74505805969E-08  0.10566000000E+00  0.10566000000E+00 0.  1.
     999900   -1    0    0    0    0 -0.00000000000E+00 -0.00000000000E+00 -0.74505805969E-08  0.93827000000E+00  0.93827000000E+00 0.  1.
     999902    2    1    2    0    0 -0.21589752849E-01  0.51148044092E-02  0.91907524026E-02  0.10199144096E+01  0.10196316268E+01 0.  0.
     999903    2    3    3    0    0 -0.79981707312E-01 -0.10224684381E+00 -0.12594147623E-02  0.13140703775E+00  0.20364991280E-01 0.  0.
         14    1    1    2    0    0  0.21589752849E-01 -0.51148044092E-02 -0.91907524026E-02  0.24015590393E-01  0.00000000000E+00 0. -1.
     999901    1    3    3    0    0  0.58391954463E-01  0.10736164822E+00  0.10450167165E-01  0.88850737186E+00  0.88000000000E+00 0. -1.
        -11    1    4    4    0    0 -0.68982080462E-01 -0.75212247533E-01 -0.36134309209E-02  0.10212114183E+00  0.51100000000E-03 0.  1.
         11    1    4    4    0    0 -0.10999626850E-01 -0.27034596279E-01  0.23540161585E-02  0.29285895921E-01  0.51100000000E-03 0. -1.
</event>
<event>
 8    1  0.1166736E+005  0.1043930E+01  0.7957747E-01            NaN
         13   -1    0    0    0    0  0.00000000000E+00  0.00000000000E+00  0.74505805969E-08  0.10566000000E+00  0.10566000000E+00 0. -1.
     999900   -1    0    0    0    0 -0.00000000000E+00 -0.00000000000E+00 -0.74505805969E-08  0.93827000000E+00  0.93827000000E+00 0.  1.
     999902    2    1    2    0    0 -0.14354230394E-01  0.12477864935E-01  0.14015175701E-01  0.10203044589E+01  0.10200308930E+01 0.  0.
     999903    2    3    3    0    0  0.13720176925E-01 -0.55203592508E-01  0.11670963568E+00  0.13130777489E+00  0.19619194778E-01 0.  0.
         14    1    1    2    0    0  0.14354230394E-01 -0.12477864935E-01 -0.14015175701E-01  0.23625541125E-01  0.00000000000E+00 0.  1.
     999901    1    3    3    0    0 -0.28074407318E-01  0.67681457442E-01 -0.10269445998E+00  0.88899668399E+00  0.88000000000E+00 0. -1.
        -11    1    4    4    0    0  0.94441836141E-02 -0.21884673849E-01  0.68631818875E-01  0.72654795001E-01  0.51100000000E-03 0. -1.
         11    1    4    4    0    0  0.42759933107E-02 -0.33318918658E-01  0.48077816810E-01  0.58652979887E-01  0.51100000000E-03 0.  1.
</event>
<event>
 8    1  0.1166736E+005  0.1043930E+01  0.7957747E-01            NaN
         13   -1    0    0    0    0  0.00000000000E+00  0.00000000000E+00  0.74505805969E-08  0.10566000000E+00  0.10566000000E+00 0.  1.
     999900   -1    0    0    0    0 -0.00000000000E+00 -0.00000000000E+00 -0.74505805969E-08  0.93827000000E+00  0.93827000000E+00 0. -1.
     999902    2    1    2    0    0  0.22149367330E-01 -0.73839347061E-02  0.44920904566E-02  0.10201540491E+01  0.10198769475E+01 0.  0.
     999903    2    3    3    0    0  0.51494216439E-01  0.75657507639E-01  0.93597676191E-01  0.13128015099E+00  0.99116228494E-02 0.  0.
         14    1    1    2    0    0 -0.22149367330E-01  0.73839347061E-02 -0.44920904566E-02  0.23775950907E-01  0.00000000000E+00 0. -1.
     999901    1    3    3    0    0 -0.29344849109E-01 -0.83041442345E-01 -0.89105585735E-01  0.88887389810E+00  0.88000000000E+00 0. -1.
        -11    1    4    4    0    0  0.19640549294E-01  0.24889067539E-01  0.38392336511E-01  0.49794070765E-01  0.51100000000E-03 0.  1.
         11    1    4    4    0    0  0.31853667144E-01  0.50768440100E-01  0.55205339680E-01  0.81486080228E-01  0.51100000000E-03 0. -1.
</event>
<event>
 8    1  0.1166736E+005  0.1043930E+01  0.7957747E-01            NaN
         13   -1    0    0    0    0  0.00000000000E+00  0.00000000000E+00  0.74505805969E-08  0.10566000000E+00  0.10566000000E+00 0. -1.
     999900   -1    0    0    0    0 -0.00000000000E+00 -0.00000000000E+00 -0.74505805969E-08  0.93827000000E+00  0.93827000000E+00 0.  1.
     999902    2    1    2    0    0  0.19190784374E-01  0.10746206444E-01  0.10105463774E-01  0.10197248857E+01  0.10194375680E+01 0.  0.
     999903    2    3    3    0    0 -0.90780015166E-01  0.16405819003E-01 -0.86284344841E-01  0.12763934996E+00  0.18348118214E-01 0.  0.
         14    1    1    2    0    0 -0.19190784374E-01 -0.10746206444E-01 -0.10105463774E-01  0.24205114251E-01  0.00000000000E+00 0.  1.
     999901    1    3    3    0    0  0.10997079954E+00 -0.56596125593E-02  0.96389808615E-01  0.89208553579E+00  0.88000000000E+00 0. -1.
        -11    1    4    4    0    0 -0.51126717787E-01  0.14768162377E-01 -0.39435669816E-01  0.66238003189E-01  0.51100000000E-03 0.  1.
         11    1    4    4    0    0 -0.39653297379E-01  0.16376566264E-02 -0.46848675025E-01  0.61401346767E-01  0.51100000000E-03 0. -1.
</event>
<event>
 8    1  0.1166736E+005  0.1043930E+01  0.7957747E-01            NaN
         13   -1    0    0    0    0  0.00000000000E+00  0.00000000000E+00  0.74505805969E-08  0.10566000000E+00  0.10566000000E+00 0.  1.
     999900   -1    0    0    0    0 -0.00000000000E+00 -0.00000000000E+00 -0.74505805969E-08  0.93827000000E+00  0.93827000000E+00 0. -1.
     999902    2    1    2    0    0 -0.11802143189E-01  0.15767153842E-01 -0.12810352632E-01  0.10204353440E+01  0.10201648359E+01 0.  0.
     999903    2    3    3    0    0 -0.77259769520E-01 -0.95110465039E-01 -0.40593335296E-01  0.13063174698E+00  0.20043999169E-01 0.  0.
         14    1    1    2    0    0  0.11802143189E-01 -0.15767153842E-01  0.12810352632E-01  0.23494655960E-01  0.00000000000E+00 0.  1.
     999901    1    3    3    0    0  0.65457626331E-01  0.11087761888E+00  0.27782982663E-01  0.88980359706E+00  0.88000000000E+00 0.  1.
        -11    1    4    4    0    0 -0.67252826649E-01 -0.69893438441E-01 -0.32965022963E-01  0.10244505498E+00  0.51100000000E-03 0. -1.
         11    1    4    4    0    0 -0.10006942871E-01 -0.25217026598E-01 -0.76283123325E-02  0.28186692004E-01  0.51100000000E-03 0.  1.
</event>
<event>
 8    1  0.1166736E+005  0.1043930E+01  0.7957747E-01            NaN
         13   -1    0    0    0    0  0.00000000000E+00  0.00000000000E+00  0.74505805969E-08  0.10566000000E+00  0.10566000000E+00 0.  1.
     999900   -1    0    0    0    0 -0.00000000000E+00 -0.00000000000E+00 -0.74505805969E-08  0.93827000000E+00  0.93827000000E+00 0. -1.
     999902    2    1    2    0    0 -0.40666887497E-02 -0.14179718801E-01 -0.18535862753E-01  0.10202407495E+01  0.10199656888E+01 0.  0.
     999903    2    3    3    0    0 -0.11885258707E+00 -0.53104392737E-01 -0.62937405484E-02  0.13184849250E+00  0.19959955502E-01 0.  0.
         14    1    1    2    0    0  0.40666887497E-02  0.14179718801E-01  0.18535862753E-01  0.23689250530E-01  0.00000000000E+00 0.  1.
     999901    1    3    3    0    0  0.11478589832E+00  0.38924673936E-01 -0.12242122205E-01  0.88839225697E+00  0.88000000000E+00 0.  1.
        -11    1    4    4    0    0 -0.43330186486E-01 -0.27886359596E-01 -0.83282171350E-02  0.52199371970E-01  0.51100000000E-03 0. -1.
         11    1    4    4    0    0 -0.75522400579E-01 -0.25218033141E-01  0.20344765866E-02  0.79649120527E-01  0.51100000000E-03 0.  1.
</event>
<event>
 8    1  0.1166736E+005  0.1043930E+01  0.7957747E-01            NaN
         13   -1    0    0    0    0  0.00000000000E+00  0.00000000000E+00  0.74505805969E-08  0.10566000000E+00  0.10566000000E+00 0. -1.
     999900   -1    0    0    0    0 -0.00000000000E+00 -0.00000000000E+00 -0.74505805969E-08  0.93827000000E+00  0.93827000000E+00 0.  1.
     999902    2    1    2    0    0  0.82494689906E-02 -0.15665701036E-01 -0.16881746309E-01  0.10194665316E+01  0.10191729724E+01 0.  0.
     999903    2    3    3    0    0 -0.12478615768E+00 -0.24581906175E-01 -0.12780482299E-01  0.12941327643E+00  0.20213859846E-01 0.  0.
         14    1    1    2    0    0 -0.82494689906E-02  0.15665701036E-01  0.16881746309E-01  0.24463468397E-01  0.00000000000E+00 0. -1.
     999901    1    3    3    0    0  0.13303562667E+00  0.89162051382E-02 -0.41012640101E-02  0.89005325517E+00  0.88000000000E+00 0. -1.
        -11    1    4    4    0    0 -0.79959776207E-01 -0.18367648646E-01  0.11758570035E-02  0.82052300934E-01  0.51100000000E-03 0.  1.
         11    1    4    4    0    0 -0.44826381469E-01 -0.62142575282E-02 -0.13956339302E-01  0.47360975496E-01  0.51100000000E-03 0. -1.
</event>
<event>
 8    1  0.1221665E+005  0.1043930E+01  0.7957747E-01            NaN
         13   -1    0    0    0    0  0.00000000000E+00  0.00000000000E+00  0.74505805969E-08  0.10566000000E+00  0.10566000000E+00 0. -1.
     999900   -1    0    0    0    0 -0.00000000000E+00 -0.00000000000E+00 -0.74505805969E-08  0.93827000000E+00  0.93827000000E+00 0. -1.
     999902    2    1    2    0    0 -0.46313612078E-02  0.56195369103E-02 -0.22556325618E-01  0.10202273308E+01  0.10199519547E+01 0.  0.
     999903    2    3    3    0    0  0.31997630654E-01 -0.12235020692E+00 -0.24040900858E-01  0.13021601495E+00  0.19616934905E-01 0.  0.
         14    1    1    2    0    0  0.46313612078E-02 -0.56195369103E-02  0.22556325618E-01  0.23702669198E-01  0.00000000000E+00 0. -1.
     999901    1    3    3    0    0 -0.36628991862E-01  0.12796974383E+00  0.14845752403E-02  0.89001131585E+00  0.88000000000E+00 0.  1.
        -11    1    4    4    0    0  0.91034879800E-02 -0.73013082230E-01 -0.14375968882E-01  0.74971416369E-01  0.51100000000E-03 0.  1.
         11    1    4    4    0    0  0.22894142674E-01 -0.49337124688E-01 -0.96649319764E-02  0.55244598581E-01  0.51100000000E-03 0. -1.
</event>
<event>
 8    1  0.1166736E+005  0.1043930E+01  0.7957747E-01            NaN
         13   -1    0    0    0    0  0.00000000000E+00  0.00000000000E+00  0.74505805969E-08  0.10566000000E+00  0.10566000000E+00 0.  1.
     999900   -1    0    0    0    0 -0.00000000000E+00 -0.00000000000E+00 -0.74505805969E-08  0.93827000000E+00  0.93827000000E+00 0.  1.
     999902    2    1    2    0    0 -0.62397712885E-02  0.78041696745E-02  0.20142189315E-01  0.10214456143E+01  0.10211981176E+01 0.  0.
     999903    2    3    3    0    0 -0.63838813524E-01 -0.11250527891E+00 -0.36630344046E-02  0.13107563403E+00  0.20846393468E-01 0.  0.
         14    1    1    2    0    0  0.62397712885E-02 -0.78041696745E-02 -0.20142189315E-01  0.22484385703E-01  0.00000000000E+00 0. -1.
     999901    1    3    3    0    0  0.57599042236E-01  0.12030944858E+00  0.23805223720E-01  0.89036998027E+00  0.88000000000E+00 0. -1.
        -11    1    4    4    0    0 -0.49045488044E-01 -0.82298302713E-01 -0.11622335972E-01  0.96508084332E-01  0.51100000000E-03 0.  1.
         11    1    4    4    0    0 -0.14793325480E-01 -0.30206976196E-01  0.79593015677E-02  0.34567549698E-01  0.51100000000E-03 0. -1.
</event>
<event>
 8    1  0.1166736E+005  0.1043930E+01  0.7957747E-01            NaN
         13   -1    0    0    0    0  0.00000000000E+00  0.00000000000E+00  0.74505805969E-08  0.10566000000E+00  0.10566000000E+00 0.  1.
     999900   -1    0    0    0    0 -0.00000000000E+00 -0.00000000000E+00 -0.74505805969E-08  0.93827000000E+00  0.93827000000E+00 0.  1.
     999902    2    1    2    0    0  0.64776317078E-02  0.20904364117E-01  0.11159866858E-01  0.10193638693E+01  0.10190678109E+01 0.  0.
     999903    2    3    3    0    0  0.12699022402E+00 -0.19562761013E-01  0.10790483827E-02  0.13017182249E+00  0.20840355321E-01 0.  0.
         14    1    1    2    0    0 -0.64776317078E-02 -0.20904364117E-01 -0.11159866858E-01  0.24566130749E-01  0.00000000000E+00 0. -1.
     999901    1    3    3    0    0 -0.12051259231E+00  0.40467125131E-01  0.10080818475E-01  0.88919204676E+00  0.88000000000E+00 0. -1.
        -11    1    4    4    0    0  0.83243714908E-01 -0.21901236463E-01 -0.33016662523E-02  0.86141409040E-01  0.51100000000E-03 0.  1.
         11    1    4    4    0    0  0.43746509112E-01  0.23384754500E-02  0.43807146350E-02  0.44030413450E-01  0.51100000000E-03 0. -1.
</event>
<event>
 8    1  0.1166736E+005  0.1043930E+01  0.7957747E-01            NaN
         13   -1    0    0    0    0  0.00000000000E+00  0.00000000000E+00  0.74505805969E-08  0.10566000000E+00  0.10566000000E+00 0. -1.
     999900   -1    0    0    0    0 -0.00000000000E+00 -0.00000000000E+00 -0.74505805969E-08  0.93827000000E+00  0.93827000000E+00 0. -1.
     999902    2    1    2    0    0  0.18972877267E-01  0.10646927659E-01  0.99487846352E-02  0.10200070935E+01  0.10197265150E+01 0.  0.
     999903    2    3    3    0    0 -0.64546509668E-01  0.66340814202E-01  0.90037856738E-01  0.13068625348E+00  0.20117794716E-01 0.  0.
         14    1    1    2    0    0 -0.18972877267E-01 -0.10646927659E-01 -0.99487846352E-02  0.23922906514E-01  0.00000000000E+00 0. -1.
     999901    1    3    3    0    0  0.83519386935E-01 -0.55693886542E-01 -0.80089072103E-01  0.88932084000E+00  0.88000000000E+00 0. -1.
        -11    1    4    4    0    0 -0.32647972345E-01  0.19462152743E-01  0.35510917314E-01  0.52018764471E-01  0.51100000000E-03 0.  1.
         11    1    4    4    0    0 -0.31898537323E-01  0.46878661458E-01  0.54526939425E-01  0.78667489012E-01  0.51100000000E-03 0. -1.
</event>
<event>
 8    1  0.1166736E+005  0.1043930E+01  0.7957747E-01            NaN
         13   -1    0    0    0    0  0.00000000000E+00  0.00000000000E+00  0.74505805969E-08  0.10566000000E+00  0.10566000000E+00 0. -1.
     999900   -1    0    0    0    0 -0.00000000000E+00 -0.00000000000E+00 -0.74505805969E-08  0.93827000000E+00  0.93827000000E+00 0.  1.
     999902    2    1    2    0    0  0.15852307477E-01  0.12584124608E-01 -0.96788682346E-02  0.10214948415E+01  0.10212484394E+01 0.  0.
     999903    2    3    3    0    0  0.77619803456E-01 -0.28016992369E-01 -0.10270457803E+00  0.13350978709E+00  0.21606645987E-01 0.  0.
         14    1    1    2    0    0 -0.15852307477E-01 -0.12584124608E-01  0.96788682346E-02  0.22435158453E-01  0.00000000000E+00 0. -1.
     999901    1    3    3    0    0 -0.61767495979E-01  0.40601116977E-01  0.93025709792E-01  0.88798505446E+00  0.88000000000E+00 0. -1.
        -11    1    4    4    0    0  0.51272062277E-01 -0.22817525444E-01 -0.83013276472E-01  0.10020443618E+00  0.51100000000E-03 0. -1.
         11    1    4    4    0    0  0.26347741180E-01 -0.51994669250E-02 -0.19691301555E-01  0.33305350914E-01  0.51100000000E-03 0.  1.
</event>
<event>
 8    1  0.1166736E+005  0.1043930E+01  0.7957747E-01            NaN
         13   -1    0    0    0    0  0.00000000000E+00  0.00000000000E+00  0.74505805969E-08  0.10566000000E+00  0.10566000000E+00 0.  1.
     999900   -1    0    0    0    0 -0.00000000000E+00 -0.00000000000E+00 -0.74505805969E-08  0.93827000000E+00  0.93827000000E+00 0.  1.
     999902    2    1    2    0    0  0.18822387405E-01 -0.13728768907E-01  0.11188359073E-01  0.10180854504E+01  0.10177573599E+01 0.  0.
     999903    2    3    3    0    0  0.77655743693E-01 -0.53096728712E-01  0.90128100574E-01  0.13172058039E+00  0.19430894374E-01 0.  0.
         14    1    1    2    0    0 -0.18822387405E-01  0.13728768907E-01 -0.11188359073E-01  0.25844549562E-01  0.00000000000E+00 0. -1.
     999901    1    3    3    0    0 -0.58833356288E-01  0.39367959805E-01 -0.78939741501E-01  0.88636487005E+00  0.88000000000E+00 0. -1.
        -11    1    4    4    0    0  0.45771528526E-01 -0.21759690419E-01  0.55577962916E-01  0.75217604546E-01  0.51100000000E-03 0. -1.
         11    1    4    4    0    0  0.31884215167E-01 -0.31337038293E-01  0.34550137658E-01  0.56502975842E-01  0.51100000000E-03 0.  1.
</event>
<event>
 8    1  0.1166736E+005  0.1043930E+01  0.7957747E-01            NaN
         13   -1    0    0    0    0  0.00000000000E+00  0.00000000000E+00  0.74505805969E-08  0.10566000000E+00  0.10566000000E+00 0.  1.
     999900   -1    0    0    0    0 -0.00000000000E+00 -0.00000000000E+00 -0.74505805969E-08  0.93827000000E+00  0.93827000000E+00 0. -1.
     999902    2    1    2    0    0 -0.28004999533E-02  0.46991261548E-02 -0.23149466979E-01  0.10201429782E+01  0.10198656154E+01 0.  0.
     999903    2    3    3    0    0  0.37243371659E-01  0.78642740649E-01  0.92496778033E-01  0.12860205158E+00  0.20275214800E-01 0.  0.
         14    1    1    2    0    0  0.28004999533E-02 -0.46991261548E-02  0.23149466979E-01  0.23787021840E-01  0.00000000000E+00 0.  1.
     999901    1    3    3    0    0 -0.40043871613E-01 -0.73943614495E-01 -0.11564624501E+00  0.89154092658E+00  0.88000000000E+00 0. -1.
        -11    1    4    4    0    0  0.34744438453E-01  0.53036726781E-01  0.61728758560E-01  0.88491644495E-01  0.51100000000E-03 0. -1.
         11    1    4    4    0    0  0.24989332063E-02  0.25606013869E-01  0.30768019472E-01  0.40110407087E-01  0.51100000000E-03 0.  1.
</event>
<event>
 8    1  0.1166736E+005  0.1043930E+01  0.7957747E-01            NaN
         13   -1    0    0    0    0  0.00000000000E+00  0.00000000000E+00  0.74505805969E-08  0.10566000000E+00  0.10566000000E+00 0.  1.
     999900   -1    0    0    0    0 -0.00000000000E+00 -0.00000000000E+00 -0.74505805969E-08  0.93827000000E+00  0.93827000000E+00 0. -1.
     999902    2    1    2    0    0  0.21488645445E-01 -0.11052343523E-02  0.10977733995E-01  0.10197743781E+01  0.10194882482E+01 0.  0.
     999903    2    3    3    0    0 -0.15046942743E-01  0.93624972636E-01  0.87444126022E-01  0.13064234604E+00  0.20709935182E-01 0.  0.
         14    1    1    2    0    0 -0.21488645445E-01  0.11052343523E-02 -0.10977733995E-01  0.24155621907E-01  0.00000000000E+00 0. -1.
     999901    1    3    3    0    0  0.36535588188E-01 -0.94730206988E-01 -0.76466392027E-01  0.88913203206E+00  0.88000000000E+00 0. -1.
        -11    1    4    4    0    0 -0.90148626785E-02  0.38476362948E-01  0.49890509928E-01  0.63647642193E-01  0.51100000000E-03 0.  1.
         11    1    4    4    0    0 -0.60320800641E-02  0.55148609687E-01  0.37553616094E-01  0.66994703844E-01  0.51100000000E-03 0. -1.
</event>
<event>
 8    1  0.1166736E+005  0.1043930E+01  0.7957747E-01            NaN
         13   -1    0    0    0    0  0.00000000000E+00  0.00000000000E+00  0.74505805969E-08  0.10566000000E+00  0.10566000000E+00 0.  1.
     999900   -1    0    0    0    0 -0.00000000000E+00 -0.00000000000E+00 -0.74505805969E-08  0.93827000000E+00  0.93827000000E+00 0. -1.
     999902    2    1    2    0    0  0.15269502424E-01  0.11251853748E-01 -0.12944714327E-01  0.10209663865E+01  0.10207081046E+01 0.  0.
     999903    2    3    3    0    0 -0.52293638583E-01  0.96131193067E-01  0.68337744549E-01  0.13058662571E+00  0.20173957643E-01 0.  0.
         14    1    1    2    0    0 -0.15269502424E-01 -0.11251853748E-01  0.12944714327E-01  0.22963613523E-01  0.00000000000E+00 0.  1.
     999901    1    3    3    0    0  0.67563141007E-01 -0.84879339319E-01 -0.81282458876E-01  0.89037976077E+00  0.88000000000E+00 0. -1.
        -11    1    4    4    0    0 -0.35365481416E-01  0.79957218046E-01  0.58433753944E-01  0.10516006235E+00  0.51100000000E-03 0.  1.
         11    1    4    4    0    0 -0.16928157167E-01  0.16173975021E-01  0.99039906048E-02  0.25426563353E-01  0.51100000000E-03 0. -1.
</event>
<event>
 8    1  0.1166736E+005  0.1043930E+01  0.7957747E-01            NaN
         13   -1    0    0    0    0  0.00000000000E+00  0.00000000000E+00  0.74505805969E-08  0.10566000000E+00  0.10566000000E+00 0.  1.
     999900   -1    0    0    0    0 -0.00000000000E+00 -0.00000000000E+00 -0.74505805969E-08  0.93827000000E+00  0.93827000000E+00 0. -1.
     999902    2    1    2    0    0 -0.69841490823E-02 -0.12200818543E-01  0.19147513028E-01  0.10201757253E+01  0.10198991347E+01 0.  0.
     999903    2    3    3    0    0  0.55520525679E-02  0.36446826127E-01  0.12554315936E+00  0.13234478236E+00  0.19871087831E-01 0.  0.
         14    1    1    2    0    0  0.69841490823E-02  0.12200818543E-01 -0.19147513028E-01  0.23754274703E-01  0.00000000000E+00 0. -1.
     999901    1    3    3    0    0 -0.12536201650E-01 -0.48647644670E-01 -0.10639564633E+00  0.88783094294E+00  0.88000000000E+00 0. -1.
        -11    1    4    4    0    0 -0.26315740961E-02  0.27625388688E-01  0.66046654366E-01  0.71641530946E-01  0.51100000000E-03 0. -1.
         11    1    4    4    0    0  0.81836266640E-02  0.88214374390E-02  0.59496504997E-01  0.60703251410E-01  0.51100000000E-03 0.  1.
</event>
<event>
 8    1  0.1166736E+005  0.1043930E+01  0.7957747E-01            NaN
         13   -1    0    0    0    0  0.00000000000E+00  0.00000000000E+00  0.74505805969E-08  0.10566000000E+00  0.10566000000E+00 0.  1.
     999900   -1    0    0    0    0 -0.00000000000E+00 -0.00000000000E+00 -0.74505805969E-08  0.93827000000E+00  0.93827000000E+00 0. -1.
     999902    2    1    2    0    0 -0.77891357732E-02 -0.81137117421E-02 -0.19689956006E-01  0.10212540806E+01  0.10210023015E+01 0.  0.
     999903    2    3    3    0    0 -0.98719506705E-02  0.11552351550E+00  0.54215697910E-01  0.12954081514E+00  0.19958528085E-01 0.  0.
         14    1    1    2    0    0  0.77891357732E-02  0.81137117421E-02  0.19689956006E-01  0.22675919427E-01  0.00000000000E+00 0.  1.
     999901    1    3    3    0    0  0.20828148973E-02 -0.12363722724E+00 -0.73905653916E-01  0.89171326544E+00  0.88000000000E+00 0. -1.
        -11    1    4    4    0    0  0.30363644507E-02  0.41839209176E-01  0.27227180198E-01  0.50013192221E-01  0.51100000000E-03 0. -1.
         11    1    4    4    0    0 -0.12908315121E-01  0.73684306320E-01  0.26988517713E-01  0.79527622915E-01  0.51100000000E-03 0.  1.
</event>
<event>
 8    1  0.1166736E+005  0.1043930E+01  0.7957747E-01            NaN
         13   -1    0    0    0    0  0.00000000000E+00  0.00000000000E+00  0.74505805969E-08  0.10566000000E+00  0.10566000000E+00 0.  1.
     999900   -1    0    0    0    0 -0.00000000000E+00 -0.00000000000E+00 -0.74505805969E-08  0.93827000000E+00  0.93827000000E+00 0.  1.
     999902    2    1    2    0    0  0.13887044902E-02  0.82764976418E-02  0.22309143160E-01  0.10200945897E+01  0.10198160840E+01 0.  0.
     999903    2    3    3    0    0 -0.46819746365E-01  0.10028169366E+00 -0.64509277422E-01  0.12974272168E+00  0.20572316868E-01 0.  0.
         14    1    1    2    0    0 -0.13887044902E-02 -0.82764976418E-02 -0.22309143160E-01  0.23835410252E-01  0.00000000000E+00 0. -1.
     999901    1    3    3    0    0  0.48208450855E-01 -0.92005196018E-01  0.86818420581E-01  0.89035186807E+00  0.88000000000E+00 0. -1.
        -11    1    4    4    0    0 -0.31795446403E-01  0.45401552725E-01 -0.36037850364E-01  0.66115347550E-01  0.51100000000E-03 0.  1.
         11    1    4    4    0    0 -0.15024299962E-01  0.54880140935E-01 -0.28471427057E-01  0.63627374125E-01  0.51100000000E-03 0. -1.
</event>
<event>
 8    1  0.1166736E+005  0.1043930E+01  0.7957747E-01            NaN
         13   -1    0    0    0    0  0.00000000000E+00  0.00000000000E+00  0.74505805969E-08  0.10566000000E+00  0.10566000000E+00 0. -1.
     999900   -1    0    0    0    0 -0.00000000000E+00 -0.00000000000E+00 -0.74505805969E-08  0.93827000000E+00  0.93827000000E+00 0.  1.
     999902    2    1    2    0    0 -0.22336974592E-02  0.22717964376E-01  0.63400693675E-02  0.10202384026E+01  0.10199632867E+01 0.  0.
     999903    2    3    3    0    0 -0.12267301777E+00  0.28428279510E-01  0.32896150902E-01  0.13161955117E+00  0.19614105646E-01 0.  0.
         14    1    1    2    0    0  0.22336974592E-02 -0.22717964376E-01 -0.63400693675E-02  0.23691597441E-01  0.00000000000E+00 0. -1.
     999901    1    3    3    0    0  0.12043932032E+00 -0.57103151342E-02 -0.26556081534E-01  0.88861885139E+00  0.88000000000E+00 0.  1.
        -11    1    4    4    0    0 -0.31041163564E-01  0.14147201486E-01  0.14514312130E-01  0.37075915672E-01  0.51100000000E-03 0.  1.
         11    1    4    4    0    0 -0.91631854211E-01  0.14281078023E-01  0.18381838771E-01  0.94543635499E-01  0.51100000000E-03 0. -1.
</event>
<event>
 8    1  0.1166736E+005  0.1043930E+01  0.7957747E-01            NaN
         13   -1    0    0    0    0  0.00000000000E+00  0.00000000000E+00  0.74505805969E-08  0.10566000000E+00  0.10566000000E+00 0.  1.
     999900   -1    0    0    0    0 -0.00000000000E+00 -0.00000000000E+00 -0.74505805969E-08  0.93827000000E+00  0.93827000000E+00 0. -1.
     999902    2    1    2    0    0 -0.24542172952E-02  0.22854085822E-01  0.64704288200E-03  0.10209354118E+01  0.10206764247E+01 0.  0.
     999903    2    3    3    0    0 -0.59457615867E-01  0.86263060390E-01  0.80042944512E-01  0.13325653142E+00  0.19336662778E-01 0.  0.
         14    1    1    2    0    0  0.24542172952E-02 -0.22854085822E-01 -0.64704288200E-03  0.22994588184E-01  0.00000000000E+00 0. -1.
     999901    1    3    3    0    0  0.57003398572E-01 -0.63408974569E-01 -0.79395901630E-01  0.88767888040E+00  0.88000000000E+00 0. -1.
        -11    1    4    4    0    0 -0.42277213395E-01  0.56281026333E-01  0.64068623937E-01  0.95183855731E-01  0.51100000000E-03 0. -1.
         11    1    4    4    0    0 -0.17180402472E-01  0.29982034057E-01  0.15974320575E-01  0.38072675689E-01  0.51100000000E-03 0.  1.
</event>
<event>
 8    1  0.1166736E+005  0.1043930E+01  0.7957747E-01            NaN
         13   -1    0    0    0    0  0.00000000000E+00  0.00000000000E+00  0.74505805969E-08  0.10566000000E+00  0.10566000000E+00 0.  1.
     999900   -1    0    0    0    0 -0.00000000000E+00 -0.00000000000E+00 -0.74505805969E-08  0.93827000000E+00  0.93827000000E+00 0.  1.
     999902    2    1    2    0    0 -0.47736111450E-02 -0.12905038156E-01 -0.19743155251E-01  0.10198650971E+01  0.10195811379E+01 0.  0.
     999903    2    3    3    0    0  0.40279523664E-01 -0.78838099841E-01 -0.96705543357E-01  0.13290390133E+00  0.21762326640E-01 0.  0.
         14    1    1    2    0    0  0.47736111450E-02  0.12905038156E-01  0.19743155251E-01  0.24064902917E-01  0.00000000000E+00 0.  1.
     999901    1    3    3    0    0 -0.45053134809E-01  0.65933061685E-01  0.76962388107E-01  0.88696119575E+00  0.88000000000E+00 0. -1.
        -11    1    4    4    0    0 -0.17391559507E-02 -0.10172113466E-01 -0.76577166243E-02  0.12860727067E-01  0.51100000000E-03 0. -1.
         11    1    4    4    0    0  0.42018679615E-01 -0.68665986375E-01 -0.89047826733E-01  0.12004317427E+00  0.51100000000E-03 0.  1.
</event>
<event>
 8    1  0.1166736E+005  0.1043930E+01  0.7957747E-01            NaN
         13   -1    0    0    0    0  0.00000000000E+00  0.00000000000E+00  0.74505805969E-08  0.10566000000E+00  0.10566000000E+00 0. -1.
     999900   -1    0    0    0    0 -0.00000000000E+00 -0.00000000000E+00 -0.74505805969E-08  0.93827000000E+00  0.93827000000E+00 0. -1.
     999902    2    1    2    0    0 -0.18017358305E-01 -0.12164604970E-01 -0.58508264838E-02  0.10214170041E+01  0.10211688701E+01 0.  0.
     999903    2    3    3    0    0 -0.10868281442E+00 -0.46850262426E-01  0.59012531022E-01  0.13370614186E+00  0.19696505151E-01 0.  0.
         14    1    1    2    0    0  0.18017358305E-01  0.12164604970E-01  0.58508264838E-02  0.22512995911E-01  0.00000000000E+00 0.  1.
     999901    1    3    3    0    0  0.90665456113E-01  0.34685657456E-01 -0.64863357506E-01  0.88771086223E+00  0.88000000000E+00 0. -1.
        -11    1    4    4    0    0 -0.86894792761E-01 -0.40429208229E-01  0.39153330049E-01  0.10353004521E+00  0.51100000000E-03 0.  1.
         11    1    4    4    0    0 -0.21788021657E-01 -0.64210541970E-02  0.19859200974E-01  0.30176096650E-01  0.51100000000E-03 0. -1.
</event>
<event>
 8    1  0.1166736E+005  0.1043930E+01  0.7957747E-01            NaN
         13   -1    0    0    0    0  0.00000000000E+00  0.00000000000E+00  0.74505805969E-08  0.10566000000E+00  0.10566000000E+00 0.  1.
     999900   -1    0    0    0    0 -0.00000000000E+00 -0.00000000000E+00 -0.74505805969E-08  0.93827000000E+00  0.93827000000E+00 0.  1.
     999902    2    1    2    0    0 -0.23203992252E-01  0.28191941771E-02  0.23492620011E-02  0.10204376152E+01  0.10201671600E+01 0.  0.
     999903    2    3    3    0    0  0.32407920822E-01 -0.15750688696E-01 -0.12292310527E+00  0.12963421857E+00  0.19914399022E-01 0.  0.
         14    1    1    2    0    0  0.23203992252E-01 -0.28191941771E-02 -0.23492620011E-02  0.23492384813E-01  0.00000000000E+00 0. -1.
     999901    1    3    3    0    0 -0.55611913074E-01  0.18569882873E-01  0.12527236727E+00  0.89080339662E+00  0.88000000000E+00 0. -1.
        -11    1    4    4    0    0  0.19026271898E-01 -0.17892460184E-01 -0.95967846864E-01  0.99459679803E-01  0.51100000000E-03 0.  1.
         11    1    4    4    0    0  0.13381648924E-01  0.21417714879E-02 -0.26955258405E-01  0.30174538766E-01  0.51100000000E-03 0. -1.
</event>
<event>
 8    1  0.1166736E+005  0.1043930E+01  0.7957747E-01            NaN
         13   -1    0    0    0    0  0.00000000000E+00  0.00000000000E+00  0.74505805969E-08  0.10566000000E+00  0.10566000000E+00 0.  1.
     999900   -1    0    0    0    0 -0.00000000000E+00 -0.00000000000E+00 -0.74505805969E-08  0.93827000000E+00  0.93827000000E+00 0. -1.
     999902    2    1    2    0    0 -0.17823146125E-01 -0.15318207378E-01  0.14721119770E-02  0.10203826195E+01  0.10201108817E+01 0.  0.
     999903    2    3    3    0    0  0.80413359587E-01 -0.28070488521E-02  0.99441569987E-01  0.12942529456E+00  0.19700078886E-01 0.  0.
         14    1    1    2    0    0  0.17823146125E-01  0.15318207378E-01 -0.14721119770E-02  0.23547380507E-01  0.00000000000E+00 0. -1.
     999901    1    3    3    0    0 -0.98236505711E-01 -0.12511158526E-01 -0.97969458010E-01  0.89095732493E+00  0.88000000000E+00 0. -1.
        -11    1    4    4    0    0  0.31892753358E-01 -0.10276073886E-01  0.45155506057E-01  0.56231897172E-01  0.51100000000E-03 0. -1.
         11    1    4    4    0    0  0.48520606229E-01  0.74690250336E-02  0.54286063930E-01  0.73193397392E-01  0.51100000000E-03 0.  1.
</event>
<event>
 8    1  0.1166736E+005  0.1043930E+01  0.7957747E-01            NaN
         13   -1    0    0    0    0  0.00000000000E+00  0.00000000000E+00  0.74505805969E-08  0.10566000000E+00  0.10566000000E+00 0. -1.
     999900   -1    0    0    0    0 -0.00000000000E+00 -0.00000000000E+00 -0.74505805969E-08  0.93827000000E+00  0.93827000000E+00 0. -1.
     999902    2    1    2    0    0 -0.17525114249E-02 -0.17986722476E-01  0.15131397124E-01  0.10203598354E+01  0.10200875653E+01 0.  0.
     999903    2    3    3    0    0  0.10846504379E+00 -0.42611758367E-01  0.60729951900E-01  0.13197167130E+00  0.12164180653E-01 0.  0.
         14    1    1    2    0    0  0.17525114249E-02  0.17986722476E-01 -0.15131397124E-01  0.23570164629E-01  0.00000000000E+00 0.  1.
     999901    1    3    3    0    0 -0.11021755522E+00  0.24625035890E-01 -0.45598554776E-01  0.88838816407E+00  0.88000000000E+00 0. -1.
        -11    1    4    4    0    0  0.86334012510E-01 -0.30116398296E-01  0.51395820183E-01  0.10489209034E+00  0.51100000000E-03 0.  1.
         11    1    4    4    0    0  0.22131031281E-01 -0.12495360070E-01  0.93341317176E-02  0.27079580957E-01  0.51100000000E-03 0. -1.
</event>
<event>
 7    1  0.2261958E+005  0.1043930E+01  0.7957747E-01            NaN
         13   -1    0    0    0    0  0.00000000000E+00  0.00000000000E+00  0.74505805969E-08  0.10566000000E+00  0.10566000000E+00 0.  1.
     999900   -1    0    0    0    0 -0.00000000000E+00 -0.00000000000E+00 -0.74505805969E-08  0.93827000000E+00  0.93827000000E+00 0. -1.
     999903    2    1    2    0    0  0.60977546120E-01  0.38858112852E-01  0.78238488038E-01  0.10849356767E+00  0.20527521745E-01 0.  0.
         14    1    1    2    0    0 -0.20745358135E-01  0.70713889628E-02  0.39822192202E-01  0.45455268317E-01  0.00000000000E+00 0.  1.
     999901    1    1    2    0    0 -0.40232187986E-01 -0.45929501815E-01 -0.11806068024E+00  0.88998116402E+00  0.88000000000E+00 0. -1.
        -11    1    3    3    0    0  0.37857835347E-01  0.26839493884E-01  0.63181306913E-01  0.78394596710E-01  0.51100000000E-03 0.  1.
         11    1    3    3    0    0  0.23119710773E-01  0.12018618968E-01  0.15057181126E-01  0.30098970955E-01  0.51100000000E-03 0. -1.
</event>
<event>
 8    1  0.1166736E+005  0.1043930E+01  0.7957747E-01            NaN
         13   -1    0    0    0    0  0.00000000000E+00  0.00000000000E+00  0.74505805969E-08  0.10566000000E+00  0.10566000000E+00 0.  1.
     999900   -1    0    0    0    0 -0.00000000000E+00 -0.00000000000E+00 -0.74505805969E-08  0.93827000000E+00  0.93827000000E+00 0.  1.
     999902    2    1    2    0    0  0.51709210282E-02  0.21346527682E-02  0.25111851986E-01  0.10182025773E+01  0.10178774918E+01 0.  0.
     999903    2    3    3    0    0  0.12265120805E-01  0.53837954652E-01 -0.11177045580E+00  0.12609253632E+00  0.18913867309E-01 0.  0.
         14    1    1    2    0    0 -0.51709210282E-02 -0.21346527682E-02 -0.25111851986E-01  0.25727422663E-01  0.00000000000E+00 0. -1.
     999901    1    3    3    0    0 -0.70941997765E-02 -0.51703301884E-01  0.13688230779E+00  0.89211004102E+00  0.88000000000E+00 0. -1.
        -11    1    4    4    0    0  0.83961909504E-02  0.28387425383E-01 -0.39444276559E-01  0.49319915010E-01  0.51100000000E-03 0. -1.
         11    1    4    4    0    0  0.38689298542E-02  0.25450529270E-01 -0.72326179241E-01  0.76772621311E-01  0.51100000000E-03 0.  1.
</event>
<event>
 8    1  0.1166736E+005  0.1043930E+01  0.7957747E-01            NaN
         13   -1    0    0    0    0  0.00000000000E+00  0.00000000000E+00  0.74505805969E-08  0.10566000000E+00  0.10566000000E+00 0.  1.
     999900   -1    0    0    0    0 -0.00000000000E+00 -0.00000000000E+00 -0.74505805969E-08  0.93827000000E+00  0.93827000000E+00 0.  1.
     999902    2    1    2    0    0  0.72958602940E-02  0.11017740613E-01  0.98865960981E-03  0.10306786743E+01  0.10305934853E+01 0.  0.
     999903    2    3    3    0    0 -0.53816293207E-01  0.44290483098E-01 -0.11974887457E+00  0.13971328614E+00  0.17949068374E-01 0.  0.
         14    1    1    2    0    0 -0.72958602940E-02 -0.11017740613E-01 -0.98865960981E-03  0.13251325725E-01  0.00000000000E+00 0.  1.
     999901    1    3    3    0    0  0.61112153501E-01 -0.33272742485E-01  0.12073753418E+00  0.89096538814E+00  0.88000000000E+00 0. -1.
        -11    1    4    4    0    0 -0.30423984967E-01  0.34107575090E-01 -0.66862721895E-01  0.80992778938E-01  0.51100000000E-03 0. -1.
         11    1    4    4    0    0 -0.23392308240E-01  0.10182908008E-01 -0.52886152674E-01  0.58720507201E-01  0.51100000000E-03 0.  1.
</event>
<event>
 8    1  0.1166736E+005  0.1043930E+01  0.7957747E-01            NaN
         13   -1    0    0    0    0  0.00000000000E+00  0.00000000000E+00  0.74505805969E-08  0.10566000000E+00  0.10566000000E+00 0. -1.
     999900   -1    0    0    0    0 -0.00000000000E+00 -0.00000000000E+00 -0.74505805969E-08  0.93827000000E+00  0.93827000000E+00 0. -1.
     999902    2    1    2    0    0 -0.73882866162E-02  0.80514115171E-02  0.18948765117E-01  0.10220560953E+01  0.10218219974E+01 0.  0.
     999903    2    3    3    0    0 -0.21556335730E-01 -0.12798334341E+00 -0.18385138646E-02  0.13124842857E+00  0.19451428434E-01 0.  0.
         14    1    1    2    0    0  0.73882866162E-02 -0.80514115171E-02 -0.18948765117E-01  0.21873904681E-01  0.00000000000E+00 0.  1.
     999901    1    3    3    0    0  0.14168049113E-01  0.13603475493E+00  0.20787278981E-01  0.89080766675E+00  0.88000000000E+00 0. -1.
        -11    1    4    4    0    0 -0.64166962145E-02 -0.68183173009E-01  0.73471191530E-02  0.68879317308E-01  0.51100000000E-03 0. -1.
         11    1    4    4    0    0 -0.15139639515E-01 -0.59800170405E-01 -0.91856330176E-02  0.62369111266E-01  0.51100000000E-03 0.  1.
</event>
<event>
 8    1  0.1166736E+005  0.1043930E+01  0.7957747E-01            NaN
         13   -1    0    0    0    0  0.00000000000E+00  0.00000000000E+00  0.74505805969E-08  0.10566000000E+00  0.10566000000E+00 0. -1.
     999900   -1    0    0    0    0 -0.00000000000E+00 -0.00000000000E+00 -0.74505805969E-08  0.93827000000E+00  0.93827000000E+00 0. -1.
     999902    2    1    2    0    0 -0.89567101722E-02 -0.18815995749E-01  0.96393790294E-02  0.10209695562E+01  0.10207113464E+01 0.  0.
     999903    2    3    3    0    0  0.56977657924E-01 -0.11485423361E+00  0.29402858959E-01  0.13307244548E+00  0.20144457015E-01 0.  0.
         14    1    1    2    0    0  0.89567101722E-02  0.18815995749E-01 -0.96393790294E-02  0.22960443837E-01  0.00000000000E+00 0. -1.
     999901    1    3    3    0    0 -0.65934368097E-01  0.96038237864E-01 -0.19763479929E-01  0.88789711069E+00  0.88000000000E+00 0.  1.
        -11    1    4    4    0    0  0.26497660177E-01 -0.34906075507E-01  0.50860611353E-02  0.44121301443E-01  0.51100000000E-03 0. -1.
         11    1    4    4    0    0  0.30479997747E-01 -0.79948158106E-01  0.24316797823E-01  0.88951144032E-01  0.51100000000E-03 0.  1.
</event>
<event>
 8    1  0.1166736E+005  0.1043930E+01  0.7957747E-01            NaN
         13   -1    0    0    0    0  0.00000000000E+00  0.00000000000E+00  0.74505805969E-08  0.10566000000E+00  0.10566000000E+00 0.  1.
     999900   -1    0    0    0    0 -0.00000000000E+00 -0.00000000000E+00 -0.74505805969E-08  0.93827000000E+00  0.93827000000E+00 0.  1.
     999902    2    1    2    0    0  0.10850747668E-01 -0.12509744133E-01 -0.19814433084E-01  0.10181066737E+01  0.10177791287E+01 0.  0.
     999903    2    3    3    0    0  0.30937022680E-01  0.12181319100E+00 -0.10543012846E-01  0.12763934213E+00  0.19623803552E-01 0.  0.
         14    1    1    2    0    0 -0.10850747668E-01  0.12509744133E-01  0.19814433084E-01  0.25823326310E-01  0.00000000000E+00 0.  1.
     999901    1    3    3    0    0 -0.20086275012E-01 -0.13432293513E+00 -0.92714202376E-02  0.89046733156E+00  0.88000000000E+00 0.  1.
        -11    1    4    4    0    0  0.17919918609E-01  0.98372083306E-01 -0.12395804648E-01  0.10075766646E+00  0.51100000000E-03 0.  1.
         11    1    4    4    0    0  0.13017104071E-01  0.23441107691E-01  0.18527918020E-02  0.26881675666E-01  0.51100000000E-03 0. -1.
</event>
<event>
 8    1  0.1166736E+005  0.1043930E+01  0.7957747E-01            NaN
         13   -1    0    0    0    0  0.00000000000E+00  0.00000000000E+00  0.74505805969E-08  0.10566000000E+00  0.10566000000E+00 0.  1.
     999900   -1    0    0    0    0 -0.00000000000E+00 -0.00000000000E+00 -0.74505805969E-08  0.93827000000E+00  0.93827000000E+00 0. -1.
     999902    2    1    2    0    0  0.12347938851E-02 -0.13279722639E-01  0.17799955408E-01  0.10216878292E+01  0.10214456942E+01 0.  0.
     999903    2    3    3    0    0  0.95827539981E-01  0.15351036654E-01  0.90153857394E-01  0.13320451753E+00  0.14041144588E-01 0.  0.
         14    1    1    2    0    0 -0.12347938851E-02  0.13279722639E-01 -0.17799955408E-01  0.22242170798E-01  0.00000000000E+00 0. -1.
     999901    1    3    3    0    0 -0.94592746096E-01 -0.28630759293E-01 -0.72353901986E-01  0.88848331167E+00  0.88000000000E+00 0. -1.
        -11    1    4    4    0    0  0.37437503395E-02 -0.19495282064E-02  0.53101242339E-02  0.68025632824E-02  0.51100000000E-03 0.  1.
         11    1    4    4    0    0  0.92083789642E-01  0.17300564860E-01  0.84843733160E-01  0.12640195424E+00  0.51100000000E-03 0. -1.
</event>
<event>
 8    1  0.1166736E+005  0.1043930E+01  0.7957747E-01            NaN
         13   -1    0    0    0    0  0.00000000000E+00  0.00000000000E+00  0.74505805969E-08  0.10566000000E+00  0.10566000000E+00 0. -1.
     999900   -1    0    0    0    0 -0.00000000000E+00 -0.00000000000E+00 -0.74505805969E-08  0.93827000000E+00  0.93827000000E+00 0.  1.
     999902    2    1    2    0    0 -0.22027819724E-01  0.58101325050E-02 -0.93311367528E-02  0.10193118645E+01  0.10190145360E+01 0.  0.
     999903    2    3    3    0    0 -0.18325831751E-01  0.47283363215E-01 -0.11951481104E+00  0.13146380564E+00  0.20673402942E-01 0.  0.
         14    1    1    2    0    0  0.22027819724E-01 -0.58101325050E-02  0.93311367528E-02  0.24618135482E-01  0.00000000000E+00 0. -1.
     999901    1    3    3    0    0 -0.37019879726E-02 -0.41473230710E-01  0.11018367428E+00  0.88784805888E+00  0.88000000000E+00 0. -1.
        -11    1    4    4    0    0 -0.82996964189E-02  0.22628046192E-01 -0.32481440980E-01  0.40450198568E-01  0.51100000000E-03 0. -1.
         11    1    4    4    0    0 -0.10026135332E-01  0.24655317023E-01 -0.87033370057E-01  0.91013607069E-01  0.51100000000E-03 0.  1.
</event>
<event>
 7    1  0.1166736E+005  0.1043930E+01  0.7957747E-01            NaN
         13   -1    0    0    0    0  0.00000000000E+00  0.00000000000E+00  0.74505805969E-08  0.10566000000E+00  0.10566000000E+00 0.  1.
     999900   -1    0    0    0    0 -0.00000000000E+00 -0.00000000000E+00 -0.74505805969E-08  0.93827000000E+00  0.93827000000E+00 0. -1.
     999902    2    1    2    0    0 -0.19863772021E-02  0.24465100075E-01 -0.59616598361E-02  0.10186707798E+01  0.10183575646E+01 0.  0.
         14    1    1    2    0    0  0.19863772021E-02 -0.24465100075E-01  0.59616598361E-02  0.25259220180E-01  0.00000000000E+00 0.  1.
     999901    1    3    3    0    0  0.37046993853E-01  0.14202109131E+00  0.18703819495E-01  0.89235211828E+00  0.88000000000E+00 0.  1.
        -11    1    3    3    0    0 -0.15722085560E-01 -0.50292093906E-01 -0.10165610782E-01  0.53666371662E-01  0.51100000000E-03 0. -1.
         11    1    3    3    0    0 -0.23311285495E-01 -0.67263897333E-01 -0.14499868549E-01  0.72652289880E-01  0.51100000000E-03 0.  1.
</event>
<event>
 8    1  0.1166736E+005  0.1043930E+01  0.7957747E-01            NaN
         13   -1    0    0    0    0  0.00000000000E+00  0.00000000000E+00  0.74505805969E-08  0.10566000000E+00  0.10566000000E+00 0. -1.
     999900   -1    0    0    0    0 -0.00000000000E+00 -0.00000000000E+00 -0.74505805969E-08  0.93827000000E+00  0.93827000000E+00 0. -1.
     999902    2    1    2    0    0 -0.73046780831E-02 -0.15230937728E-01  0.20285220883E-01  0.10175324628E+01  0.10171899935E+01 0.  0.
     999903    2    3    3    0    0  0.48934620768E-01  0.63209857151E-01  0.98992812177E-01  0.12876325652E+00  0.19756422147E-01 0.  0.
         14    1    1    2    0    0  0.73046780831E-02  0.15230937728E-01 -0.20285220883E-01  0.26397537239E-01  0.00000000000E+00 0.  1.
     999901    1    3    3    0    0 -0.56239298851E-01 -0.78440794879E-01 -0.78707591294E-01  0.88876920624E+00  0.88000000000E+00 0. -1.
        -11    1    4    4    0    0  0.32492244937E-01  0.54109605788E-01  0.81508757962E-01  0.10308993241E+00  0.51100000000E-03 0.  1.
         11    1    4    4    0    0  0.16442375831E-01  0.91002513627E-02  0.17484054215E-01  0.25673324106E-01  0.51100000000E-03 0. -1.
</event>
<event>
 8    1  0.1166736E+005  0.1043930E+01  0.7957747E-01            NaN
         13   -1    0    0    0    0  0.00000000000E+00  0.00000000000E+00  0.74505805969E-08  0.10566000000E+00  0.10566000000E+00 0. -1.
     999900   -1    0    0    0    0 -0.00000000000E+00 -0.00000000000E+00 -0.74505805969E-08  0.93827000000E+00  0.93827000000E+00 0.  1.
     999902    2    1    2    0    0 -0.23097261174E-01  0.55083476844E-02  0.26259144363E-04  0.10201849783E+01  0.10199086056E+01 0.  0.
     999903    2    3    3    0    0 -0.36382085129E-01 -0.12265958013E+00 -0.17280029003E-01  0.13063283708E+00  0.19932636676E-01 0.  0.
         14    1    1    2    0    0  0.23097261174E-01 -0.55083476844E-02 -0.26259144363E-04  0.23745021741E-01  0.00000000000E+00 0.  1.
     999901    1    3    3    0    0  0.13284823955E-01  0.12816792781E+00  0.17306288147E-01  0.88955214118E+00  0.88000000000E+00 0.  1.
        -11    1    4    4    0    0 -0.20639665274E-01 -0.93165813277E-01 -0.18374341403E-01  0.97178917925E-01  0.51100000000E-03 0. -1.
         11    1    4    4    0    0 -0.15742419855E-01 -0.29493766854E-01  0.10943123995E-02  0.33453919154E-01  0.51100000000E-03 0.  1.
</event>
<event>
 8    1  0.1166736E+005  0.1043930E+01  0.7957747E-01            NaN
         13   -1    0    0    0    0  0.00000000000E+00  0.00000000000E+00  0.74505805969E-08  0.10566000000E+00  0.10566000000E+00 0.  1.
     999900   -1    0    0    0    0 -0.00000000000E+00 -0.00000000000E+00 -0.74505805969E-08  0.93827000000E+00  0.93827000000E+00 0.  1.
     999902    2    1    2    0    0 -0.34952017523E-02  0.22560225602E-01  0.74699893260E-02  0.10199095721E+01  0.10196266740E+01 0.  0.
     999903    2    3    3    0    0  0.51072687786E-01 -0.11357808422E+00 -0.17668409326E-01  0.12741686457E+00  0.20358881009E-01 0.  0.
         14    1    1    2    0    0  0.34952017523E-02 -0.22560225602E-01 -0.74699893260E-02  0.24020427869E-01  0.00000000000E+00 0.  1.
     999901    1    3    3    0    0 -0.54567889538E-01  0.13613830982E+00  0.25138398652E-01  0.89249270756E+00  0.88000000000E+00 0. -1.
        -11    1    4    4    0    0  0.15428385081E-01 -0.52055817484E-01 -0.14699284721E-01  0.56250984813E-01  0.51100000000E-03 0.  1.
         11    1    4    4    0    0  0.35644302704E-01 -0.61522266733E-01 -0.29691246054E-02  0.71165879754E-01  0.51100000000E-03 0. -1.
</event>
<event>
 8    1  0.1166736E+005  0.1043930E+01  0.7957747E-01            NaN
         13   -1    0    0    0    0  0.00000000000E+00  0.00000000000E+00  0.74505805969E-08  0.10566000000E+00  0.10566000000E+00 0. -1.
     999900   -1    0    0    0    0 -0.00000000000E+00 -0.00000000000E+00 -0.74505805969E-08  0.93827000000E+00  0.93827000000E+00 0.  1.
     999902    2    1    2    0    0 -0.17677027330E-01 -0.10458777215E-01 -0.11219453007E-01  0.10205261661E+01  0.10202577695E+01 0.  0.
     999903    2    3    3    0    0 -0.10547036637E+00  0.30112536613E-02  0.76977916084E-01  0.13166853518E+00  0.16671465471E-01 0.  0.
         14    1    1    2    0    0  0.17677027330E-01  0.10458777215E-01  0.11219453007E-01  0.23403833914E-01  0.00000000000E+00 0. -1.
     999901    1    3    3    0    0  0.87793339037E-01 -0.13470030877E-01 -0.88197369091E-01  0.88885763091E+00  0.88000000000E+00 0.  1.
        -11    1    4    4    0    0 -0.78137913936E-01  0.22157025074E-02  0.47562254195E-01  0.91503399264E-01  0.51100000000E-03 0. -1.
         11    1    4    4    0    0 -0.27332452431E-01  0.79555115388E-03  0.29415661889E-01  0.40165135913E-01  0.51100000000E-03 0.  1.
</event>
<event>
 8    1  0.1166736E+005  0.1043930E+01  0.7957747E-01            NaN
         13   -1    0    0    0    0  0.00000000000E+00  0.00000000000E+00  0.74505805969E-08  0.10566000000E+00  0.10566000000E+00 0. -1.
     999900   -1    0    0    0    0 -0.00000000000E+00 -0.00000000000E+00 -0.74505805969E-08  0.93827000000E+00  0.93827000000E+00 0.  1.
     999902    2    1    2    0    0 -0.13128220481E-01 -0.10834619142E-01 -0.15665310465E-01  0.10207968831E+01  0.10205347302E+01 0.  0.
     999903    2    3    3    0    0  0.25182036181E-01  0.33430308392E-01  0.11989170132E+00  0.12849493701E+00  0.19626724834E-01 0.  0.
         14    1    1    2    0    0  0.13128220481E-01  0.10834619142E-01  0.15665310465E-01  0.23133116887E-01  0.00000000000E+00 0.  1.
     999901    1    3    3    0    0 -0.38310256662E-01 -0.44264927534E-01 -0.13555701178E+00  0.89230194610E+00  0.88000000000E+00 0.  1.
        -11    1    4    4    0    0  0.32701629779E-02  0.99670549097E-03  0.33147703480E-01  0.33327447468E-01  0.51100000000E-03 0.  1.
         11    1    4    4    0    0  0.21911873204E-01  0.32433602901E-01  0.86743997835E-01  0.95167489542E-01  0.51100000000E-03 0. -1.
</event>
<event>
 8    1  0.1166736E+005  0.1043930E+01  0.7957747E-01            NaN
         13   -1    0    0    0    0  0.00000000000E+00  0.00000000000E+00  0.74505805969E-08  0.10566000000E+00  0.10566000000E+00 0.  1.
     999900   -1    0    0    0    0 -0.00000000000E+00 -0.00000000000E+00 -0.74505805969E-08  0.93827000000E+00  0.93827000000E+00 0. -1.
     999902    2    1    2    0    0 -0.29415544111E-02  0.14896861802E-01 -0.17715264856E-01  0.10205976224E+01  0.10203308812E+01 0.  0.
     999903    2    3    3    0    0  0.50917168010E-01  0.51446117871E-01  0.10585632571E+00  0.12958328580E+00  0.18628076175E-01 0.  0.
         14    1    1    2    0    0  0.29415544111E-02 -0.14896861802E-01  0.17715264856E-01  0.23332377565E-01  0.00000000000E+00 0.  1.
     999901    1    3    3    0    0 -0.53858722421E-01 -0.36549256069E-01 -0.12357159057E+00  0.89101433664E+00  0.88000000000E+00 0. -1.
        -11    1    4    4    0    0  0.11826197684E-01  0.22589630047E-01  0.44813508751E-01  0.51562215089E-01  0.51100000000E-03 0.  1.
         11    1    4    4    0    0  0.39090970325E-01  0.28856487824E-01  0.61042816963E-01  0.78021070707E-01  0.51100000000E-03 0. -1.
</event>
<event>
 8    1  0.1166736E+005  0.1043930E+01  0.7957747E-01            NaN
         13   -1    0    0    0    0  0.00000000000E+00  0.00000000000E+00  0.74505805969E-08  0.10566000000E+00  0.10566000000E+00 0. -1.
     999900   -1    0    0    0    0 -0.00000000000E+00 -0.00000000000E+00 -0.74505805969E-08  0.93827000000E+00  0.93827000000E+00 0.  1.
     999902    2    1    2    0    0 -0.16703614585E-01  0.65668079836E-02  0.15907306666E-01  0.10199471705E+01  0.10196651678E+01 0.  0.
     999903    2    3    3    0    0  0.94331465513E-01 -0.84618756362E-01 -0.20650296335E-02  0.12811388950E+00  0.18712162393E-01 0.  0.
         14    1    1    2    0    0  0.16703614585E-01 -0.65668079836E-02 -0.15907306666E-01  0.23982829539E-01  0.00000000000E+00 0. -1.
     999901    1    3    3    0    0 -0.11103508010E+00  0.91185564346E-01  0.17972336300E-01  0.89183328096E+00  0.88000000000E+00 0.  1.
        -11    1    4    4    0    0  0.18221086295E-01 -0.14462012402E-01 -0.75296160755E-02  0.24456369881E-01  0.51100000000E-03 0.  1.
         11    1    4    4    0    0  0.76110379218E-01 -0.70156743959E-01  0.54645864420E-02  0.10365751962E+00  0.51100000000E-03 0. -1.
</event>
<event>
 8    1  0.1166736E+005  0.1043930E+01  0.7957747E-01            NaN
         13   -1    0    0    0    0  0.00000000000E+00  0.00000000000E+00  0.74505805969E-08  0.10566000000E+00  0.10566000000E+00 0.  1.
     999900   -1    0    0    0    0 -0.00000000000E+00 -0.00000000000E+00 -0.74505805969E-08  0.93827000000E+00  0.93827000000E+00 0. -1.
     999902    2    1    2    0    0 -0.17104220849E-04 -0.12164819170E-01 -0.19682018202E-01  0.10207920451E+01  0.10205297812E+01 0.  0.
     999903    2    3    3    0    0 -0.38560198179E-01  0.93182934584E-02 -0.12540007041E+00  0.13336689285E+00  0.22086895999E-01 0.  0.
         14    1    1    2    0    0  0.17104220849E-04  0.12164819170E-01  0.19682018202E-01  0.23137954933E-01  0.00000000000E+00 0. -1.
     999901    1    3    3    0    0  0.38543093958E-01 -0.21483112629E-01  0.10571805220E+00  0.88742515221E+00  0.88000000000E+00 0.  1.
        -11    1    4    4    0    0 -0.38537283428E-01  0.48031509848E-02 -0.95055640416E-01  0.10268411936E+00  0.51100000000E-03 0.  1.
         11    1    4    4    0    0 -0.22914750685E-04  0.45151424736E-02 -0.30344429989E-01  0.30682773489E-01  0.51100000000E-03 0. -1.
</event>
<event>
 8    1  0.1166736E+005  0.1043930E+01  0.7957747E-01            NaN
         13   -1    0    0    0    0  0.00000000000E+00  0.00000000000E+00  0.74505805969E-08  0.10566000000E+00  0.10566000000E+00 0.  1.
     999900   -1    0    0    0    0 -0.00000000000E+00 -0.00000000000E+00 -0.74505805969E-08  0.93827000000E+00  0.93827000000E+00 0. -1.
     999902    2    1    2    0    0  0.88068074122E-02  0.21487145240E-01  0.15333311250E-02  0.10206575190E+01  0.10203921612E+01 0.  0.
     999903    2    3    3    0    0  0.25636424448E-01 -0.91498434518E-01 -0.85033386060E-01  0.12906188545E+00  0.19927462309E-01 0.  0.
         14    1    1    2    0    0 -0.88068074122E-02 -0.21487145240E-01 -0.15333311250E-02  0.23272480996E-01  0.00000000000E+00 0. -1.
     999901    1    3    3    0    0 -0.16829617036E-01  0.11298557976E+00  0.86566717185E-01  0.89159563355E+00  0.88000000000E+00 0.  1.
        -11    1    4    4    0    0  0.19362145738E-01 -0.64444281936E-01 -0.47499090759E-01  0.82367365539E-01  0.51100000000E-03 0. -1.
         11    1    4    4    0    0  0.62742787103E-02 -0.27054152581E-01 -0.37534295302E-01  0.46694519914E-01  0.51100000000E-03 0.  1.
</event>
<event>
 8    1  0.1166736E+005  0.1043930E+01  0.7957747E-01            NaN
         13   -1    0    0    0    0  0.00000000000E+00  0.00000000000E+00  0.74505805969E-08  0.10566000000E+00  0.10566000000E+00 0. -1.
     999900   -1    0    0    0    0 -0.00000000000E+00 -0.00000000000E+00 -0.74505805969E-08  0.93827000000E+00  0.93827000000E+00 0. -1.
     999902    2    1    2    0    0  0.20970317161E-01  0.99376308956E-02  0.96610367787E-03  0.10207040648E+01  0.10204397796E+01 0.  0.
     999903    2    3    3    0    0  0.88171264938E-01 -0.95288314814E-01  0.12517652401E-01  0.13181604862E+00  0.19098276115E-01 0.  0.
         14    1    1    2    0    0 -0.20970317161E-01 -0.99376308956E-02 -0.96610367787E-03  0.23225935201E-01  0.00000000000E+00 0.  1.
     999901    1    3    3    0    0 -0.67200947777E-01  0.10522594571E+00 -0.11551548723E-01  0.88888801618E+00  0.88000000000E+00 0. -1.
        -11    1    4    4    0    0  0.50805723188E-01 -0.65727728272E-01  0.13460242617E-01  0.84159343063E-01  0.51100000000E-03 0. -1.
         11    1    4    4    0    0  0.37365541750E-01 -0.29560586542E-01 -0.94259021634E-03  0.47656705555E-01  0.51100000000E-03 0.  1.
</event>
<event>
 8    1  0.1166736E+005  0.1043930E+01  0.7957747E-01            NaN
         13   -1    0    0    0    0  0.00000000000E+00  0.00000000000E+00  0.74505805969E-08  0.10566000000E+00  0.10566000000E+00 0.  1.
     999900   -1    0    0    0    0 -0.00000000000E+00 -0.00000000000E+00 -0.74505805969E-08  0.93827000000E+00  0.93827000000E+00 0. -1.
     999902    2    1    2    0    0 -0.12382048919E-01 -0.18061084577E-01  0.17297956701E-01  0.10160241365E+01  0.10156408365E+01 0.  0.
     999903    2    3    3    0    0  0.31905663335E-01  0.45677876084E-01  0.11278917046E+00  0.12746202361E+00  0.20511722857E-01 0.  0.
         14    1    1    2    0    0  0.12382048919E-01  0.18061084577E-01 -0.17297956701E-01  0.27905863498E-01  0.00000000000E+00 0. -1.
     999901    1    3    3    0    0 -0.44287712254E-01 -0.63738960661E-01 -0.95491213754E-01  0.88856211289E+00  0.88000000000E+00 0. -1.
        -11    1    4    4    0    0  0.23376781115E-01  0.32311163548E-01  0.97869292567E-01  0.10568417447E+00  0.51100000000E-03 0. -1.
         11    1    4    4    0    0  0.85288822196E-02  0.13366712536E-01  0.14919877888E-01  0.21777849139E-01  0.51100000000E-03 0.  1.
</event>
<event>
 8    1  0.1166736E+005  0.1043930E+01  0.7957747E-01            NaN
         13   -1    0    0    0    0  0.00000000000E+00  0.00000000000E+00  0.74505805969E-08  0.10566000000E+00  0.10566000000E+00 0. -1.
     999900   -1    0    0    0    0 -0.00000000000E+00 -0.00000000000E+00 -0.74505805969E-08  0.93827000000E+00  0.93827000000E+00 0.  1.
     999902    2    1    2    0    0  0.22944306053E-01  0.19092550254E-01 -0.43359558904E-02  0.10137676531E+01  0.10133188478E+01 0.  0.
     999903    2    3    3    0    0  0.81109374580E-01 -0.20335487232E-01 -0.93046239954E-01  0.12652064139E+00  0.18910506137E-01 0.  0.
         14    1    1    2    0    0 -0.22944306053E-01 -0.19092550254E-01  0.43359558904E-02  0.30162346874E-01  0.00000000000E+00 0.  1.
     999901    1    3    3    0    0 -0.58165068527E-01  0.39428037486E-01  0.88710284064E-01  0.88724701174E+00  0.88000000000E+00 0. -1.
        -11    1    4    4    0    0  0.46708943874E-01 -0.90407008196E-02 -0.65822358830E-01  0.81217632027E-01  0.51100000000E-03 0. -1.
         11    1    4    4    0    0  0.34400430706E-01 -0.11294786412E-01 -0.27223881124E-01  0.45303009362E-01  0.51100000000E-03 0.  1.
</event>
<event>
 8    1  0.1166736E+005  0.1043930E+01  0.7957747E-01            NaN
         13   -1    0    0    0    0  0.00000000000E+00  0.00000000000E+00  0.74505805969E-08  0.10566000000E+00  0.10566000000E+00 0.  1.
     999900   -1    0    0    0    0 -0.00000000000E+00 -0.00000000000E+00 -0.74505805969E-08  0.93827000000E+00  0.93827000000E+00 0.  1.
     999902    2    1    2    0    0  0.25287050275E-02 -0.12726430254E-01 -0.18420043382E-01  0.10213988133E+01  0.10211502737E+01 0.  0.
     999903    2    3    3    0    0  0.77686764160E-01  0.90904701493E-01 -0.51036675195E-01  0.13153815567E+00  0.19966123881E-01 0.  0.
         14    1    1    2    0    0 -0.25287050275E-02  0.12726430254E-01  0.18420043382E-01  0.22531186704E-01  0.00000000000E+00 0.  1.
     999901    1    3    3    0    0 -0.75158059133E-01 -0.10363113175E+00  0.32616631813E-01  0.88986065763E+00  0.88000000000E+00 0. -1.
        -11    1    4    4    0    0  0.59304814638E-01  0.60606206551E-01 -0.28142100710E-01  0.89344346576E-01  0.51100000000E-03 0. -1.
         11    1    4    4    0    0  0.18381949522E-01  0.30298494943E-01 -0.22894574485E-01  0.42193809094E-01  0.51100000000E-03 0.  1.
</event>
<event>
 8    1  0.1166736E+005  0.1043930E+01  0.7957747E-01            NaN
         13   -1    0    0    0    0  0.00000000000E+00  0.00000000000E+00  0.74505805969E-08  0.10566000000E+00  0.10566000000E+00 0.  1.
     999900   -1    0    0    0    0 -0.00000000000E+00 -0.00000000000E+00 -0.74505805969E-08  0.93827000000E+00  0.93827000000E+00 0.  1.
     999902    2    1    2    0    0 -0.90447856025E-02 -0.16437666803E-01  0.10682507230E-01  0.10223401645E+01  0.10221121714E+01 0.  0.
     999903    2    3    3    0    0 -0.85252828919E-01 -0.10150895159E+00  0.16638835846E-01  0.13493931526E+00  0.18964594773E-01 0.  0.
         14    1    1    2    0    0  0.90447856025E-02  0.16437666803E-01 -0.10682507230E-01  0.21589835507E-01  0.00000000000E+00 0. -1.
     999901    1    3    3    0    0  0.76208043316E-01  0.85071284784E-01 -0.59563286153E-02  0.88740084923E+00  0.88000000000E+00 0.  1.
        -11    1    4    4    0    0 -0.73179662238E-01 -0.75246915239E-01  0.14329393099E-01  0.10593844366E+00  0.51100000000E-03 0. -1.
         11    1    4    4    0    0 -0.12073166681E-01 -0.26262036347E-01  0.23094427469E-02  0.29000871600E-01  0.51100000000E-03 0.  1.
</event>
<event>
 8    1  0.1166736E+005  0.1043930E+01  0.7957747E-01            NaN
         13   -1    0    0    0    0  0.00000000000E+00  0.00000000000E+00  0.74505805969E-08  0.10566000000E+00  0.10566000000E+00 0.  1.
     999900   -1    0    0    0    0 -0.00000000000E+00 -0.00000000000E+00 -0.74505805969E-08  0.93827000000E+00  0.93827000000E+00 0. -1.
     999902    2    1    2    0    0  0.23820548768E-01  0.10426967766E-02 -0.53275729408E-02  0.10194986923E+01  0.10192059139E+01 0.  0.
     999903    2    3    3    0    0  0.10445724591E+00 -0.40243658190E-01  0.66795008711E-01  0.13191291800E+00  0.20213275366E-01 0.  0.
         14    1    1    2    0    0 -0.23820548768E-01 -0.10426967766E-02  0.53275729408E-02  0.24431307653E-01  0.00000000000E+00 0. -1.
     999901    1    3    3    0    0 -0.80636697137E-01  0.41286354966E-01 -0.72122581652E-01  0.88758577434E+00  0.88000000000E+00 0. -1.
        -11    1    4    4    0    0  0.28700531643E-01 -0.17379049627E-01  0.28378947372E-01  0.43947441991E-01  0.51100000000E-03 0. -1.
         11    1    4    4    0    0  0.75756714262E-01 -0.22864608562E-01  0.38416061339E-01  0.87965476014E-01  0.51100000000E-03 0.  1.
</event>
<event>
 8    1  0.1166736E+005  0.1043930E+01  0.7957747E-01            NaN
         13   -1    0    0    0    0  0.00000000000E+00  0.00000000000E+00  0.74505805969E-08  0.10566000000E+00  0.10566000000E+00 0. -1.
     999900   -1    0    0    0    0 -0.00000000000E+00 -0.00000000000E+00 -0.74505805969E-08  0.93827000000E+00  0.93827000000E+00 0.  1.
     999902    2    1    2    0    0  0.43006693038E-02 -0.19000868964E-01 -0.27937011420E-02  0.10242492088E+01  0.10240601096E+01 0.  0.
     999903    2    3    3    0    0 -0.47227008667E-01 -0.35537859130E-01 -0.11979488451E+00  0.13485736567E+00  0.18503106240E-01 0.  0.
         14    1    1    2    0    0 -0.43006693038E-02  0.19000868964E-01  0.27937011420E-02  0.19680791242E-01  0.00000000000E+00 0. -1.
     999901    1    3    3    0    0  0.51527677970E-01  0.16536990166E-01  0.11700118337E+00  0.88939184309E+00  0.88000000000E+00 0. -1.
        -11    1    4    4    0    0 -0.20917098918E-01 -0.48032655746E-02 -0.42299281153E-01  0.47435078733E-01  0.51100000000E-03 0. -1.
         11    1    4    4    0    0 -0.26309909748E-01 -0.30734593556E-01 -0.77495603362E-01  0.87422286938E-01  0.51100000000E-03 0.  1.
</event>
<event>
 8    1  0.1166736E+005  0.1043930E+01  0.7957747E-01            NaN
         13   -1    0    0    0    0  0.00000000000E+00  0.00000000000E+00  0.74505805969E-08  0.10566000000E+00  0.10566000000E+00 0.  1.
     999900   -1    0    0    0    0 -0.00000000000E+00 -0.00000000000E+00 -0.74505805969E-08  0.93827000000E+00  0.93827000000E+00 0. -1.
     999902    2    1    2    0    0 -0.12589836361E-01  0.87967033634E-02  0.18420952052E-01  0.10199463088E+01  0.10196642856E+01 0.  0.
     999903    2    3    3    0    0 -0.12961088465E+00  0.11643149458E-01 -0.77309537283E-02  0.13181008603E+00  0.19482987092E-01 0.  0.
         14    1    1    2    0    0  0.12589836361E-01 -0.87967033634E-02 -0.18420952052E-01  0.23983691212E-01  0.00000000000E+00 0. -1.
     999901    1    3    3    0    0  0.11702104829E+00 -0.28464460946E-02  0.26151905780E-01  0.88813622276E+00  0.88000000000E+00 0. -1.
        -11    1    4    4    0    0 -0.63541766021E-01  0.81354858569E-02 -0.13242197197E-01  0.65416810277E-01  0.51100000000E-03 0. -1.
         11    1    4    4    0    0 -0.66069118624E-01  0.35076636010E-02  0.55112434691E-02  0.66393275754E-01  0.51100000000E-03 0.  1.
</event>
<event>
 8    1  0.1166736E+005  0.1043930E+01  0.7957747E-01            NaN
         13   -1    0    0    0    0  0.00000000000E+00  0.00000000000E+00  0.74505805969E-08  0.10566000000E+00  0.10566000000E+00 0.  1.
     999900   -1    0    0    0    0 -0.00000000000E+00 -0.00000000000E+00 -0.74505805969E-08  0.93827000000E+00  0.93827000000E+00 0. -1.
     999902    2    1    2    0    0 -0.17435502674E-03  0.13810981133E-02 -0.24074958554E-01  0.10198148292E+01  0.10195296683E+01 0.  0.
     999903    2    3    3    0    0  0.50984219339E-02  0.97805167866E-01 -0.86490896446E-01  0.13233460258E+00  0.20974439293E-01 0.  0.
         14    1    1    2    0    0  0.17435502674E-03 -0.13810981133E-02  0.24074958554E-01  0.24115170766E-01  0.00000000000E+00 0.  1.
     999901    1    3    3    0    0 -0.52727769607E-02 -0.96424069753E-01  0.62415937892E-01  0.88748022666E+00  0.88000000000E+00 0.  1.
        -11    1    4    4    0    0 -0.97639096750E-03  0.68794641458E-01 -0.48655309683E-01  0.84268952254E-01  0.51100000000E-03 0.  1.
         11    1    4    4    0    0  0.60748129014E-02  0.29010526408E-01 -0.37835586764E-01  0.48065650323E-01  0.51100000000E-03 0. -1.
</event>
<event>
 8    1  0.1166736E+005  0.1043930E+01  0.7957747E-01            NaN
         13   -1    0    0    0    0  0.00000000000E+00  0.00000000000E+00  0.74505805969E-08  0.10566000000E+00  0.10566000000E+00 0. -1.
     999900   -1    0    0    0    0 -0.00000000000E+00 -0.00000000000E+00 -0.74505805969E-08  0.93827000000E+00  0.93827000000E+00 0. -1.
     999902    2    1    2    0    0  0.14299741652E-01  0.18232986778E-01  0.56134737460E-02  0.10200881145E+01  0.10198094556E+01 0.  0.
     999903    2    3    3    0    0 -0.39027577256E-01 -0.11342967074E+00 -0.38688317008E-01  0.12759637390E+00  0.19864711597E-01 0.  0.
         14    1    1    2    0    0 -0.14299741652E-01 -0.18232986778E-01 -0.56134737460E-02  0.23841885531E-01  0.00000000000E+00 0. -1.
     999901    1    3    3    0    0  0.53327318908E-01  0.13166265752E+00  0.44301790754E-01  0.89249174057E+00  0.88000000000E+00 0.  1.
        -11    1    4    4    0    0 -0.16586093497E-01 -0.51932634833E-01 -0.73371945842E-02  0.55010840782E-01  0.51100000000E-03 0.  1.
         11    1    4    4    0    0 -0.22441483758E-01 -0.61497035911E-01 -0.31351122424E-01  0.72585533113E-01  0.51100000000E-03 0. -1.
</event>
<event>
 8    1  0.1166736E+005  0.1043930E+01  0.7957747E-01            NaN
         13   -1    0    0    0    0  0.00000000000E+00  0.00000000000E+00  0.74505805969E-08  0.10566000000E+00  0.10566000000E+00 0. -1.
     999900   -1    0    0    0    0 -0.00000000000E+00 -0.00000000000E+00 -0.74505805969E-08  0.93827000000E+00  0.93827000000E+00 0. -1.
     999902    2    1    2    0    0  0.11868622686E-01 -0.13952753978E-01 -0.15298919597E-01  0.10200636955E+01  0.10197844588E+01 0.  0.
     999903    2    3    3    0    0  0.10224921852E+00  0.26519481626E-02  0.78064372093E-01  0.13036651532E+00  0.20962981911E-01 0.  0.
         14    1    1    2    0    0 -0.11868622686E-01  0.13952753978E-01  0.15298919597E-01  0.23866304466E-01  0.00000000000E+00 0. -1.
     999901    1    3    3    0    0 -0.90380595834E-01 -0.16604702141E-01 -0.93363291691E-01  0.88969718021E+00  0.88000000000E+00 0. -1.
        -11    1    4    4    0    0  0.46439454316E-01  0.95566280000E-02  0.43563858410E-01  0.64389618234E-01  0.51100000000E-03 0.  1.
         11    1    4    4    0    0  0.55809764204E-01 -0.69046798374E-02  0.34500513684E-01  0.65976897090E-01  0.51100000000E-03 0. -1.
</event>
<event>
 8    1  0.1166736E+005  0.1043930E+01  0.7957747E-01            NaN
         13   -1    0    0    0    0  0.00000000000E+00  0.00000000000E+00  0.74505805969E-08  0.10566000000E+00  0.10566000000E+00 0. -1.
     999900   -1    0    0    0    0 -0.00000000000E+00 -0.00000000000E+00 -0.74505805969E-08  0.93827000000E+00  0.93827000000E+00 0.  1.
     999902    2    1    2    0    0  0.25881519768E-02 -0.16591959263E-01 -0.16384761951E-01  0.10204682851E+01  0.10201985438E+01 0.  0.
     999903    2    3    3    0    0  0.32695368472E-01  0.10796347296E+00 -0.61513221737E-01  0.13004306191E+00  0.20055495231E-01 0.  0.
         14    1    1    2    0    0 -0.25881519768E-02  0.16591959263E-01  0.16384761951E-01  0.23461714921E-01  0.00000000000E+00 0.  1.
     999901    1    3    3    0    0 -0.30107216495E-01 -0.12455543222E+00  0.45128459786E-01  0.89042522317E+00  0.88000000000E+00 0. -1.
        -11    1    4    4    0    0  0.22655823601E-01  0.94970002800E-01 -0.48135958338E-01  0.10885733499E+00  0.51100000000E-03 0. -1.
         11    1    4    4    0    0  0.10039544871E-01  0.12993470157E-01 -0.13377263400E-01  0.21185726917E-01  0.51100000000E-03 0.  1.
</event>
<event>
 8    1  0.1166736E+005  0.1043930E+01  0.7957747E-01            NaN
         13   -1    0    0    0    0  0.00000000000E+00  0.00000000000E+00  0.74505805969E-08  0.10566000000E+00  0.10566000000E+00 0.  1.
     999900   -1    0    0    0    0 -0.00000000000E+00 -0.00000000000E+00 -0.74505805969E-08  0.93827000000E+00  0.93827000000E+00 0.  1.
     999902    2    1    2    0    0  0.21498455629E-01 -0.20166674063E-01  0.14629554841E-01  0.10110225204E+01  0.10104868305E+01 0.  0.
     999903    2    3    3    0    0 -0.62196939527E-01  0.69087374923E-01 -0.70497371884E-01  0.11848804037E+00  0.20688441412E-01 0.  0.
         14    1    1    2    0    0 -0.21498455629E-01  0.20166674063E-01 -0.14629554841E-01  0.32907479576E-01  0.00000000000E+00 0. -1.
     999901    1    3    3    0    0  0.83695395156E-01 -0.89254048986E-01  0.85126926726E-01  0.89253448005E+00  0.88000000000E+00 0. -1.
        -11    1    4    4    0    0 -0.26894146125E-01  0.36479854109E-01 -0.22643217962E-01  0.50666076346E-01  0.51100000000E-03 0.  1.
         11    1    4    4    0    0 -0.35302793402E-01  0.32607520814E-01 -0.47854153922E-01  0.67821964025E-01  0.51100000000E-03 0. -1.
</event>
<event>
 8    1  0.1166736E+005  0.1043930E+01  0.7957747E-01            NaN
         13   -1    0    0    0    0  0.00000000000E+00  0.00000000000E+00  0.74505805969E-08  0.10566000000E+00  0.10566000000E+00 0.  1.
     999900   -1    0    0    0    0 -0.00000000000E+00 -0.00000000000E+00 -0.74505805969E-08  0.93827000000E+00  0.93827000000E+00 0.  1.
     999902    2    1    2    0    0 -0.70984567556E-02  0.44673965745E-02  0.21933338192E-01  0.10204477291E+01  0.10201775095E+01 0.  0.
     999903    2    3    3    0    0  0.69045034159E-01  0.39747936851E-01 -0.98940523701E-01  0.12822968504E+00  0.17507417546E-01 0.  0.
         14    1    1    2    0    0  0.70984567556E-02 -0.44673965745E-02 -0.21933338192E-01  0.23482270860E-01  0.00000000000E+00 0. -1.
     999901    1    3    3    0    0 -0.76143490915E-01 -0.35280540276E-01  0.12087386189E+00  0.89221804410E+00  0.88000000000E+00 0. -1.
        -11    1    4    4    0    0  0.50614941610E-01  0.35094989112E-01 -0.83357722101E-01  0.10364507480E+00  0.51100000000E-03 0. -1.
         11    1    4    4    0    0  0.18430092549E-01  0.46529477387E-02 -0.15582801600E-01  0.24584610242E-01  0.51100000000E-03 0.  1.
</event>
<event>
 8    1  0.1166736E+005  0.1043930E+01  0.7957747E-01            NaN
         13   -1    0    0    0    0  0.00000000000E+00  0.00000000000E+00  0.74505805969E-08  0.10566000000E+00  0.10566000000E+00 0. -1.
     999900   -1    0    0    0    0 -0.00000000000E+00 -0.00000000000E+00 -0.74505805969E-08  0.93827000000E+00  0.93827000000E+00 0. -1.
     999902    2    1    2    0    0  0.95046252262E-02 -0.19837931968E-01  0.58389832022E-02  0.10211709321E+01  0.10209172824E+01 0.  0.
     999903    2    3    3    0    0 -0.51806330171E-01 -0.22367272886E-01  0.11762801350E+00  0.13197904164E+00  0.19948110934E-01 0.  0.
         14    1    1    2    0    0 -0.95046252262E-02  0.19837931968E-01 -0.58389832022E-02  0.22759067870E-01  0.00000000000E+00 0.  1.
     999901    1    3    3    0    0  0.61310955398E-01  0.25293409174E-02 -0.11178903030E+00  0.88919189049E+00  0.88000000000E+00 0. -1.
        -11    1    4    4    0    0 -0.20804952430E-01 -0.91405850709E-02  0.27051336240E-01  0.35333160833E-01  0.51100000000E-03 0. -1.
         11    1    4    4    0    0 -0.31001377742E-01 -0.13226687815E-01  0.90576677261E-01  0.96645880808E-01  0.51100000000E-03 0.  1.
</event>
<event>
 8    1  0.1166736E+005  0.1043930E+01  0.7957747E-01            NaN
         13   -1    0    0    0    0  0.00000000000E+00  0.00000000000E+00  0.74505805969E-08  0.10566000000E+00  0.10566000000E+00 0.  1.
     999900   -1    0    0    0    0 -0.00000000000E+00 -0.00000000000E+00 -0.74505805969E-08  0.93827000000E+00  0.93827000000E+00 0. -1.
     999902    2    1    2    0    0  0.70194457938E-03 -0.19070603567E-02  0.23768675831E-01  0.10200746116E+01  0.10197956333E+01 0.  0.
     999903    2    3    3    0    0 -0.95377119819E-01 -0.43707240745E-01  0.77952518248E-01  0.13220393943E+00  0.19853680324E-01 0.  0.
         14    1    1    2    0    0 -0.70194457938E-03  0.19070603567E-02 -0.23768675831E-01  0.23855388409E-01  0.00000000000E+00 0. -1.
     999901    1    3    3    0    0  0.96079064398E-01  0.41800180388E-01 -0.54183842417E-01  0.88787067216E+00  0.88000000000E+00 0. -1.
        -11    1    4    4    0    0 -0.18303121132E-01 -0.61792330199E-02  0.58608124933E-02  0.20193994354E-01  0.51100000000E-03 0. -1.
         11    1    4    4    0    0 -0.77073998687E-01 -0.37528007725E-01  0.72091705755E-01  0.11200994508E+00  0.51100000000E-03 0.  1.
</event>
<event>
 8    1  0.1166736E+005  0.1043930E+01  0.7957747E-01            NaN
         13   -1    0    0    0    0  0.00000000000E+00  0.00000000000E+00  0.74505805969E-08  0.10566000000E+00  0.10566000000E+00 0. -1.
     999900   -1    0    0    0    0 -0.00000000000E+00 -0.00000000000E+00 -0.74505805969E-08  0.93827000000E+00  0.93827000000E+00 0.  1.
     999902    2    1    2    0    0 -0.11645233005E-01  0.23480871834E-02  0.19116930423E-01  0.10214226236E+01  0.10211746148E+01 0.  0.
     999903    2    3    3    0    0 -0.12457595390E+00 -0.40366543878E-01 -0.95982865812E-02  0.13271431871E+00  0.19296039290E-01 0.  0.
         14    1    1    2    0    0  0.11645233005E-01 -0.23480871834E-02 -0.19116930423E-01  0.22507376434E-01  0.00000000000E+00 0.  1.
     999901    1    3    3    0    0  0.11293072089E+00  0.42714631061E-01  0.28715217004E-01  0.88870830485E+00  0.88000000000E+00 0. -1.
        -11    1    4    4    0    0 -0.22579190668E-01  0.14994981494E-03 -0.56343459441E-03  0.22592496889E-01  0.51100000000E-03 0.  1.
         11    1    4    4    0    0 -0.10199676323E+00 -0.40516493693E-01 -0.90348519868E-02  0.11012182182E+00  0.51100000000E-03 0. -1.
</event>
<event>
 8    1  0.1166736E+005  0.1043930E+01  0.7957747E-01            NaN
         13   -1    0    0    0    0  0.00000000000E+00  0.00000000000E+00  0.74505805969E-08  0.10566000000E+00  0.10566000000E+00 0. -1.
     999900   -1    0    0    0    0 -0.00000000000E+00 -0.00000000000E+00 -0.74505805969E-08  0.93827000000E+00  0.93827000000E+00 0. -1.
     999902    2    1    2    0    0 -0.19773429684E-01 -0.11788188737E-01 -0.66222925346E-02  0.10199757796E+01  0.10196944574E+01 0.  0.
     999903    2    3    3    0    0  0.14288318707E-01  0.10725887926E+00 -0.67728339322E-01  0.12920849461E+00  0.19977084395E-01 0.  0.
         14    1    1    2    0    0  0.19773429684E-01  0.11788188737E-01  0.66222925346E-02  0.23954220371E-01  0.00000000000E+00 0.  1.
     999901    1    3    3    0    0 -0.34061748391E-01 -0.11904706800E+00  0.61106046787E-01  0.89076728502E+00  0.88000000000E+00 0.  1.
        -11    1    4    4    0    0  0.10501825474E-01  0.75570457078E-01 -0.36593091342E-01  0.84619724510E-01  0.51100000000E-03 0.  1.
         11    1    4    4    0    0  0.37864932327E-02  0.31688422183E-01 -0.31135247979E-01  0.44588770102E-01  0.51100000000E-03 0. -1.
</event>
<event>
 8    1  0.1166736E+005  0.1043930E+01  0.7957747E-01            NaN
         13   -1    0    0    0    0  0.00000000000E+00  0.00000000000E+00  0.74505805969E-08  0.10566000000E+00  0.10566000000E+00 0. -1.
     999900   -1    0    0    0    0 -0.00000000000E+00 -0.00000000000E+00 -0.74505805969E-08  0.93827000000E+00  0.93827000000E+00 0.  1.
     999902    2    1    2    0    0  0.92855385899E-02  0.21861101147E-01 -0.27800510876E-02  0.10200164546E+01  0.10197360982E+01 0.  0.
     999903    2    3    3    0    0 -0.80742806368E-01 -0.85220164918E-01  0.45816023170E-01  0.12764148919E+00  0.20282122516E-01 0.  0.
         14    1    1    2    0    0 -0.92855385899E-02 -0.21861101147E-01  0.27800510876E-02  0.23913545415E-01  0.00000000000E+00 0. -1.
     999901    1    3    3    0    0  0.90028344958E-01  0.10708126606E+00 -0.48596074258E-01  0.89237496540E+00  0.88000000000E+00 0.  1.
        -11    1    4    4    0    0 -0.14845302449E-01 -0.70723402934E-02  0.25936150437E-02  0.16654998110E-01  0.51100000000E-03 0. -1.
         11    1    4    4    0    0 -0.65897503919E-01 -0.78147824624E-01  0.43222408126E-01  0.11098649108E+00  0.51100000000E-03 0.  1.
</event>
<event>
 8    1  0.1166736E+005  0.1043930E+01  0.7957747E-01            NaN
         13   -1    0    0    0    0  0.00000000000E+00  0.00000000000E+00  0.74505805969E-08  0.10566000000E+00  0.10566000000E+00 0. -1.
     999900   -1    0    0    0    0 -0.00000000000E+00 -0.00000000000E+00 -0.74505805969E-08  0.93827000000E+00  0.93827000000E+00 0.  1.
     999902    2    1    2    0    0  0.75654225618E-02 -0.17116225787E-01  0.14697568648E-01  0.10201346364E+01  0.10198570768E+01 0.  0.
     999903    2    3    3    0    0 -0.79775198218E-01  0.96888479391E-01  0.18360008234E-01  0.12848511430E+00  0.20490851710E-01 0.  0.
         14    1    1    2    0    0 -0.75654225618E-02  0.17116225787E-01 -0.14697568648E-01  0.23795363580E-01  0.00000000000E+00 0.  1.
     999901    1    3    3    0    0  0.87340620780E-01 -0.11400470518E+00 -0.36624395857E-02  0.89164952212E+00  0.88000000000E+00 0.  1.
        -11    1    4    4    0    0 -0.55863601762E-01  0.57976004726E-01  0.19328558212E-01  0.82799839428E-01  0.51100000000E-03 0. -1.
         11    1    4    4    0    0 -0.23911596456E-01  0.38912474665E-01 -0.96854997825E-03  0.45685274867E-01  0.51100000000E-03 0.  1.
</event>
<event>
 8    1  0.1166736E+005  0.1043930E+01  0.7957747E-01            NaN
         13   -1    0    0    0    0  0.00000000000E+00  0.00000000000E+00  0.74505805969E-08  0.10566000000E+00  0.10566000000E+00 0.  1.
     999900   -1    0    0    0    0 -0.00000000000E+00 -0.00000000000E+00 -0.74505805969E-08  0.93827000000E+00  0.93827000000E+00 0.  1.
     999902    2    1    2    0    0 -0.14538446649E-01 -0.61834959851E-02 -0.17980899788E-01  0.10199943611E+01  0.10197134803E+01 0.  0.
     999903    2    3    3    0    0 -0.83426465872E-01  0.75784684501E-01 -0.65864925344E-01  0.13221216836E+00  0.20942193252E-01 0.  0.
         14    1    1    2    0    0  0.14538446649E-01  0.61834959851E-02  0.17980899788E-01  0.23935638925E-01  0.00000000000E+00 0.  1.
     999901    1    3    3    0    0  0.68888019223E-01 -0.81968180486E-01  0.47884025556E-01  0.88778219272E+00  0.88000000000E+00 0. -1.
        -11    1    4    4    0    0 -0.16127130550E-01  0.18687725796E-01 -0.55286593402E-02  0.25301040103E-01  0.51100000000E-03 0.  1.
         11    1    4    4    0    0 -0.67299335322E-01  0.57096958704E-01 -0.60336266004E-01  0.10691112825E+00  0.51100000000E-03 0. -1.
</event>
<event>
 8    1  0.1166736E+005  0.1043930E+01  0.7957747E-01            NaN
         13   -1    0    0    0    0  0.00000000000E+00  0.00000000000E+00  0.74505805969E-08  0.10566000000E+00  0.10566000000E+00 0. -1.
     999900   -1    0    0    0    0 -0.00000000000E+00 -0.00000000000E+00 -0.74505805969E-08  0.93827000000E+00  0.93827000000E+00 0.  1.
     999902    2    1    2    0    0  0.97251570944E-02 -0.19146880467E-01 -0.11306972767E-01  0.10196600732E+01  0.10193711962E+01 0.  0.
     999903    2    3    3    0    0 -0.36383182377E-01  0.81300035356E-01 -0.91240557301E-01  0.12915182521E+00  0.20540763100E-01 0.  0.
         14    1    1    2    0    0 -0.97251570944E-02  0.19146880467E-01  0.11306972767E-01  0.24269926767E-01  0.00000000000E+00 0. -1.
     999901    1    3    3    0    0  0.46108339471E-01 -0.10044691582E+00  0.79933584534E-01  0.89050824803E+00  0.88000000000E+00 0. -1.
        -11    1    4    4    0    0 -0.56637787658E-02  0.18897900625E-01 -0.97464758553E-02  0.22010541805E-01  0.51100000000E-03 0.  1.
         11    1    4    4    0    0 -0.30719403611E-01  0.62402134731E-01 -0.81494081446E-01  0.10714128340E+00  0.51100000000E-03 0. -1.
</event>
<event>
 8    1  0.1166736E+005  0.1043930E+01  0.7957747E-01            NaN
         13   -1    0    0    0    0  0.00000000000E+00  0.00000000000E+00  0.74505805969E-08  0.10566000000E+00  0.10566000000E+00 0. -1.
     999900   -1    0    0    0    0 -0.00000000000E+00 -0.00000000000E+00 -0.74505805969E-08  0.93827000000E+00  0.93827000000E+00 0.  1.
     999902    2    1    2    0    0  0.15012919420E-01 -0.67770210693E-02 -0.16809513835E-01  0.10203954399E+01  0.10201240014E+01 0.  0.
     999903    2    3    3    0    0 -0.10023350363E+00 -0.79291600163E-01 -0.11181412125E-01  0.12990581180E+00  0.20410361525E-01 0.  0.
         14    1    1    2    0    0 -0.15012919420E-01  0.67770210693E-02  0.16809513835E-01  0.23534560107E-01  0.00000000000E+00 0. -1.
     999901    1    3    3    0    0  0.11524642305E+00  0.72514579094E-01 -0.56281017098E-02  0.89048962809E+00  0.88000000000E+00 0.  1.
        -11    1    4    4    0    0 -0.34388882335E-01 -0.28197671885E-01  0.57928752247E-02  0.44849999468E-01  0.51100000000E-03 0. -1.
         11    1    4    4    0    0 -0.65844621291E-01 -0.51093928279E-01 -0.16974287349E-01  0.85055812335E-01  0.51100000000E-03 0.  1.
</event>
<event>
 8    1  0.1166736E+005  0.1043930E+01  0.7957747E-01            NaN
         13   -1    0    0    0    0  0.00000000000E+00  0.00000000000E+00  0.74505805969E-08  0.10566000000E+00  0.10566000000E+00 0. -1.
     999900   -1    0    0    0    0 -0.00000000000E+00 -0.00000000000E+00 -0.74505805969E-08  0.93827000000E+00  0.93827000000E+00 0. -1.
     999902    2    1    2    0    0 -0.21220742338E-01  0.91733797737E-02  0.61096384762E-02  0.10200176918E+01  0.10197373648E+01 0.  0.
     999903    2    3    3    0    0  0.61679010368E-01  0.79893200508E-01 -0.77675471261E-01  0.12934737867E+00  0.22584103413E-01 0.  0.
         14    1    1    2    0    0  0.21220742338E-01 -0.91733797737E-02 -0.61096384762E-02  0.23912308214E-01  0.00000000000E+00 0.  1.
     999901    1    3    3    0    0 -0.82899752706E-01 -0.70719820735E-01  0.83785109737E-01  0.89067031311E+00  0.88000000000E+00 0.  1.
        -11    1    4    4    0    0  0.42414957447E-01  0.64624718920E-01 -0.48775538109E-01  0.91404032457E-01  0.51100000000E-03 0. -1.
         11    1    4    4    0    0  0.19264052921E-01  0.15268481589E-01 -0.28899933152E-01  0.37943346218E-01  0.51100000000E-03 0.  1.
</event>
<event>
 8    1  0.1166736E+005  0.1043930E+01  0.7957747E-01            NaN
         13   -1    0    0    0    0  0.00000000000E+00  0.00000000000E+00  0.74505805969E-08  0.10566000000E+00  0.10566000000E+00 0. -1.
     999900   -1    0    0    0    0 -0.00000000000E+00 -0.00000000000E+00 -0.74505805969E-08  0.93827000000E+00  0.93827000000E+00 0. -1.
     999902    2    1    2    0    0  0.20732370287E-01 -0.11056348566E-01  0.50989150934E-02  0.10198868522E+01  0.10196034123E+01 0.  0.
     999903    2    3    3    0    0 -0.85436985230E-01 -0.94109190054E-01  0.14453312182E-01  0.12957386718E+00  0.20602687360E-01 0.  0.
         14    1    1    2    0    0 -0.20732370287E-01  0.11056348566E-01 -0.50989150934E-02  0.24043147807E-01  0.00000000000E+00 0. -1.
     999901    1    3    3    0    0  0.10616935552E+00  0.83052841487E-01 -0.93543970891E-02  0.89031298501E+00  0.88000000000E+00 0. -1.
        -11    1    4    4    0    0 -0.66612874438E-02 -0.16483930080E-01 -0.14257929446E-02  0.17843393954E-01  0.51100000000E-03 0. -1.
         11    1    4    4    0    0 -0.78775697786E-01 -0.77625259974E-01  0.15879105127E-01  0.11173047323E+00  0.51100000000E-03 0.  1.
</event>
<event>
 8    1  0.1166736E+005  0.1043930E+01  0.7957747E-01            NaN
         13   -1    0    0    0    0  0.00000000000E+00  0.00000000000E+00  0.74505805969E-08  0.10566000000E+00  0.10566000000E+00 0.  1.
     999900   -1    0    0    0    0 -0.00000000000E+00 -0.00000000000E+00 -0.74505805969E-08  0.93827000000E+00  0.93827000000E+00 0.  1.
     999902    2    1    2    0    0  0.15161603910E-01  0.25578069469E-02  0.17851397118E-01  0.10203696734E+01  0.10200976333E+01 0.  0.
     999903    2    3    3    0    0 -0.14633944475E-01  0.37541922024E-01  0.12485449720E+00  0.13269781601E+00  0.19912726164E-01 0.  0.
         14    1    1    2    0    0 -0.15161603910E-01 -0.25578069469E-02 -0.17851397118E-01  0.23560326580E-01  0.00000000000E+00 0. -1.
     999901    1    3    3    0    0  0.29795548385E-01 -0.34984115077E-01 -0.10700310008E+00  0.88767185741E+00  0.88000000000E+00 0.  1.
        -11    1    4    4    0    0 -0.16452822390E-01  0.15840146376E-01  0.56027418143E-01  0.60505688217E-01  0.51100000000E-03 0.  1.
         11    1    4    4    0    0  0.18188779155E-02  0.21701775649E-01  0.68827079054E-01  0.72192127793E-01  0.51100000000E-03 0. -1.
</event>
<event>
 8    1  0.1166736E+005  0.1043930E+01  0.7957747E-01            NaN
         13   -1    0    0    0    0  0.00000000000E+00  0.00000000000E+00  0.74505805969E-08  0.10566000000E+00  0.10566000000E+00 0.  1.
     999900   -1    0    0    0    0 -0.00000000000E+00 -0.00000000000E+00 -0.74505805969E-08  0.93827000000E+00  0.93827000000E+00 0.  1.
     999902    2    1    2    0    0  0.77432104942E-02  0.99222728504E-02 -0.20049552771E-01  0.10202573708E+01  0.10199827005E+01 0.  0.
     999903    2    3    3    0    0 -0.11880677695E+00 -0.35281402126E-01 -0.33731521720E-01  0.12995098093E+00  0.19738649927E-01 0.  0.
         14    1    1    2    0    0 -0.77432104942E-02 -0.99222728504E-02  0.20049552771E-01  0.23672629208E-01  0.00000000000E+00 0.  1.
     999901    1    3    3    0    0  0.12654998745E+00  0.45203674976E-01  0.13681968949E-01  0.89030638986E+00  0.88000000000E+00 0. -1.
        -11    1    4    4    0    0 -0.40085408220E-01 -0.36644326698E-02 -0.15776723767E-01  0.43236953556E-01  0.51100000000E-03 0. -1.
         11    1    4    4    0    0 -0.78721368734E-01 -0.31616969456E-01 -0.17954797953E-01  0.86714027375E-01  0.51100000000E-03 0.  1.
</event>
<event>
 8    1  0.1166736E+005  0.1043930E+01  0.7957747E-01            NaN
         13   -1    0    0    0    0  0.00000000000E+00  0.00000000000E+00  0.74505805969E-08  0.10566000000E+00  0.10566000000E+00 0.  1.
     999900   -1    0    0    0    0 -0.00000000000E+00 -0.00000000000E+00 -0.74505805969E-08  0.93827000000E+00  0.93827000000E+00 0. -1.
     999902    2    1    2    0    0 -0.59349901182E-02  0.15664593507E-01  0.18493167538E-01  0.10189780293E+01  0.10186724809E+01 0.  0.
     999903    2    3    3    0    0  0.93246019308E-01  0.40234685723E-01 -0.75474620009E-01  0.12809615879E+00  0.19963906921E-01 0.  0.
         14    1    1    2    0    0  0.59349901182E-02 -0.15664593507E-01 -0.18493167538E-01  0.24951970724E-01  0.00000000000E+00 0. -1.
     999901    1    3    3    0    0 -0.99181009426E-01 -0.24570092215E-01  0.93967787547E-01  0.89088187048E+00  0.88000000000E+00 0.  1.
        -11    1    4    4    0    0  0.59094652313E-02  0.70567957865E-02 -0.12059880958E-01  0.15179657302E-01  0.51100000000E-03 0. -1.
         11    1    4    4    0    0  0.87336554076E-01  0.33177889936E-01 -0.63414739051E-01  0.11291650149E+00  0.51100000000E-03 0.  1.
</event>
<event>
 8    1  0.1166736E+005  0.1043930E+01  0.7957747E-01            NaN
         13   -1    0    0    0    0  0.00000000000E+00  0.00000000000E+00  0.74505805969E-08  0.10566000000E+00  0.10566000000E+00 0. -1.
     999900   -1    0    0    0    0 -0.00000000000E+00 -0.00000000000E+00 -0.74505805969E-08  0.93827000000E+00  0.93827000000E+00 0. -1.
     999902    2    1    2    0    0 -0.12528843871E-01 -0.14521767169E-01  0.12280517298E-01  0.10211557875E+01  0.10209017962E+01 0.  0.
     999903    2    3    3    0    0  0.52378049145E-01  0.99961688132E-01 -0.58257282269E-01  0.12857808921E+00  0.20065267513E-01 0.  0.
         14    1    1    2    0    0  0.12528843871E-01  0.14521767169E-01 -0.12280517298E-01  0.22774212513E-01  0.00000000000E+00 0.  1.
     999901    1    3    3    0    0 -0.64906893016E-01 -0.11448345530E+00  0.70537799567E-01  0.89257769828E+00  0.88000000000E+00 0. -1.
        -11    1    4    4    0    0  0.17610277119E-01  0.16214835042E-01 -0.12343566146E-01  0.26938216011E-01  0.51100000000E-03 0. -1.
         11    1    4    4    0    0  0.34767772026E-01  0.83746853090E-01 -0.45913716123E-01  0.10163987320E+00  0.51100000000E-03 0.  1.
</event>
<event>
 8    1  0.1166736E+005  0.1043930E+01  0.7957747E-01            NaN
         13   -1    0    0    0    0  0.00000000000E+00  0.00000000000E+00  0.74505805969E-08  0.10566000000E+00  0.10566000000E+00 0. -1.
     999900   -1    0    0    0    0 -0.00000000000E+00 -0.00000000000E+00 -0.74505805969E-08  0.93827000000E+00  0.93827000000E+00 0. -1.
     999902    2    1    2    0    0  0.21826045566E-01 -0.75718488586E-02  0.58782542875E-02  0.10200917317E+01  0.10198131584E+01 0.  0.
     999903    2    3    3    0    0 -0.29854005868E-01 -0.79303678638E-01 -0.96175915915E-01  0.12979327798E+00  0.20399830724E-01 0.  0.
         14    1    1    2    0    0 -0.21826045566E-01  0.75718488586E-02 -0.58782542875E-02  0.23838268260E-01  0.00000000000E+00 0.  1.
     999901    1    3    3    0    0  0.51680051434E-01  0.71731829779E-01  0.10205417020E+00  0.89029845376E+00  0.88000000000E+00 0.  1.
        -11    1    4    4    0    0 -0.15005916403E-01 -0.62906643856E-01 -0.66341719404E-01  0.92649383284E-01  0.51100000000E-03 0.  1.
         11    1    4    4    0    0 -0.14848089465E-01 -0.16397034782E-01 -0.29834196511E-01  0.37143894692E-01  0.51100000000E-03 0. -1.
</event>
<event>
 8    1  0.1166736E+005  0.1043930E+01  0.7957747E-01            NaN
         13   -1    0    0    0    0  0.00000000000E+00  0.00000000000E+00  0.74505805969E-08  0.10566000000E+00  0.10566000000E+00 0.  1.
     999900   -1    0    0    0    0 -0.00000000000E+00 -0.00000000000E+00 -0.74505805969E-08  0.93827000000E+00  0.93827000000E+00 0.  1.
     999902    2    1    2    0    0  0.73513422441E-02 -0.13937696365E-01  0.17673708706E-01  0.10202517063E+01  0.10199769030E+01 0.  0.
     999903    2    3    3    0    0 -0.47517257194E-01 -0.97631140348E-01  0.74131193118E-01  0.13278193031E+00  0.18597793575E-01 0.  0.
         14    1    1    2    0    0 -0.73513422441E-02  0.13937696365E-01 -0.17673708706E-01  0.23678293692E-01  0.00000000000E+00 0. -1.
     999901    1    3    3    0    0  0.54868599439E-01  0.83693443983E-01 -0.56457484412E-01  0.88746977600E+00  0.88000000000E+00 0.  1.
        -11    1    4    4    0    0 -0.15583077096E-01 -0.16451135508E-01  0.11702178289E-01  0.25508317251E-01  0.51100000000E-03 0.  1.
         11    1    4    4    0    0 -0.31934180098E-01 -0.81180004840E-01  0.62429014829E-01  0.10727361306E+00  0.51100000000E-03 0. -1.
</event>
<event>
 8    1  0.1166736E+005  0.1043930E+01  0.7957747E-01            NaN
         13   -1    0    0    0    0  0.00000000000E+00  0.00000000000E+00  0.74505805969E-08  0.10566000000E+00  0.10566000000E+00 0.  1.
     999900   -1    0    0    0    0 -0.00000000000E+00 -0.00000000000E+00 -0.74505805969E-08  0.93827000000E+00  0.93827000000E+00 0.  1.
     999902    2    1    2    0    0 -0.26292663718E-02  0.16583831109E-01 -0.17374679520E-01  0.10197677157E+01  0.10194814260E+01 0.  0.
     999903    2    3    3    0    0  0.98976276278E-02  0.12382155529E+00 -0.42752113081E-01  0.13280612309E+00  0.19493141630E-01 0.  0.
         14    1    1    2    0    0  0.26292663718E-02 -0.16583831109E-01  0.17374679520E-01  0.24162284336E-01  0.00000000000E+00 0.  1.
     999901    1    3    3    0    0 -0.12526894000E-01 -0.10723772418E+00  0.25377433560E-01  0.88696159257E+00  0.88000000000E+00 0. -1.
        -11    1    4    4    0    0  0.12685533527E-01  0.77381814530E-01 -0.19555472082E-01  0.80817978137E-01  0.51100000000E-03 0.  1.
         11    1    4    4    0    0 -0.27879058995E-02  0.46439740762E-01 -0.23196640999E-01  0.51988144956E-01  0.51100000000E-03 0. -1.
</event>
<event>
 8    1  0.1166736E+005  0.1043930E+01  0.7957747E-01            NaN
         13   -1    0    0    0    0  0.00000000000E+00  0.00000000000E+00  0.74505805969E-08  0.10566000000E+00  0.10566000000E+00 0.  1.
     999900   -1    0    0    0    0 -0.00000000000E+00 -0.00000000000E+00 -0.74505805969E-08  0.93827000000E+00  0.93827000000E+00 0. -1.
     999902    2    1    2    0    0  0.90802509122E-02 -0.17489865055E-01 -0.12825118148E-01  0.10204176630E+01  0.10201467428E+01 0.  0.
     999903    2    3    3    0    0  0.31491348108E-01 -0.91160168064E-01 -0.90700531572E-01  0.13362898983E+00  0.18117374219E-01 0.  0.
         14    1    1    2    0    0 -0.90802509122E-02  0.17489865055E-01  0.12825118148E-01  0.23512337013E-01  0.00000000000E+00 0.  1.
     999901    1    3    3    0    0 -0.22411097196E-01  0.73670303009E-01  0.77875413424E-01  0.88678867316E+00  0.88000000000E+00 0.  1.
        -11    1    4    4    0    0  0.29334268344E-01 -0.58989176008E-01 -0.60359100560E-01  0.89351577080E-01  0.51100000000E-03 0.  1.
         11    1    4    4    0    0  0.21570797638E-02 -0.32170992056E-01 -0.30341431013E-01  0.44277412750E-01  0.51100000000E-03 0. -1.
</event>
<event>
 8    1  0.1166736E+005  0.1043930E+01  0.7957747E-01            NaN
         13   -1    0    0    0    0  0.00000000000E+00  0.00000000000E+00  0.74505805969E-08  0.10566000000E+00  0.10566000000E+00 0.  1.
     999900   -1    0    0    0    0 -0.00000000000E+00 -0.00000000000E+00 -0.74505805969E-08  0.93827000000E+00  0.93827000000E+00 0. -1.
     999902    2    1    2    0    0  0.12398932480E-01  0.43870508410E-02  0.19469692710E-01  0.10204342839E+01  0.10201637511E+01 0.  0.
     999903    2    3    3    0    0 -0.11164768413E+00  0.44812166148E-01 -0.41183180573E-01  0.12875018955E+00  0.20179725979E-01 0.  0.
         14    1    1    2    0    0 -0.12398932480E-01 -0.43870508410E-02 -0.19469692710E-01  0.23495716119E-01  0.00000000000E+00 0. -1.
     999901    1    3    3    0    0  0.12404661661E+00 -0.40425115307E-01  0.60652873283E-01  0.89168409433E+00  0.88000000000E+00 0.  1.
        -11    1    4    4    0    0 -0.69573867640E-01  0.31028326588E-01 -0.16106510830E-01  0.77865017314E-01  0.51100000000E-03 0.  1.
         11    1    4    4    0    0 -0.42073816493E-01  0.13783839560E-01 -0.25076669744E-01  0.50885172239E-01  0.51100000000E-03 0. -1.
</event>
<event>
 8    1  0.1166736E+005  0.1043930E+01  0.7957747E-01            NaN
         13   -1    0    0    0    0  0.00000000000E+00  0.00000000000E+00  0.74505805969E-08  0.10566000000E+00  0.10566000000E+00 0.  1.
     999900   -1    0    0    0    0 -0.00000000000E+00 -0.00000000000E+00 -0.74505805969E-08  0.93827000000E+00  0.93827000000E+00 0.  1.
     999902    2    1    2    0    0  0.64279240016E-02  0.76047321385E-02 -0.21373075690E-01  0.10203512273E+01  0.10200787560E+01 0.  0.
     999903    2    3    3    0    0 -0.59211372073E-02 -0.74336108266E-01  0.10194641070E+00  0.12789702883E+00  0.20091353141E-01 0.  0.
         14    1    1    2    0    0 -0.64279240016E-02 -0.76047321385E-02  0.21373075690E-01  0.23578772706E-01  0.00000000000E+00 0. -1.
     999901    1    3    3    0    0  0.12349061209E-01  0.81940840405E-01 -0.12331948639E+00  0.89245419847E+00  0.88000000000E+00 0. -1.
        -11    1    4    4    0    0  0.16538057875E-03 -0.37940787398E-01  0.67396265439E-01  0.77343703138E-01  0.51100000000E-03 0. -1.
         11    1    4    4    0    0 -0.60865177861E-02 -0.36395320869E-01  0.34550145258E-01  0.50553325689E-01  0.51100000000E-03 0.  1.
</event>
<event>
 8    1  0.1166736E+005  0.1043930E+01  0.7957747E-01            NaN
         13   -1    0    0    0    0  0.00000000000E+00  0.00000000000E+00  0.74505805969E-08  0.10566000000E+00  0.10566000000E+00 0. -1.
     999900   -1    0    0    0    0 -0.00000000000E+00 -0.00000000000E+00 -0.74505805969E-08  0.93827000000E+00  0.93827000000E+00 0.  1.
     999902    2    1    2    0    0 -0.94958042207E-02  0.21407216210E-01  0.12008490373E-02  0.10204804533E+01  0.10202109950E+01 0.  0.
     999903    2    3    3    0    0 -0.52974674109E-01 -0.93674365792E-01  0.68016800505E-01  0.12941448825E+00  0.23251273382E-01 0.  0.
         14    1    1    2    0    0  0.94958042207E-02 -0.21407216210E-01 -0.12008490373E-02  0.23449546735E-01  0.00000000000E+00 0. -1.
     999901    1    3    3    0    0  0.43478869889E-01  0.11508158200E+00 -0.66815951467E-01  0.89106596502E+00  0.88000000000E+00 0.  1.
        -11    1    4    4    0    0 -0.12137251780E-01 -0.39420621756E-01  0.34038479433E-01  0.53480627366E-01  0.51100000000E-03 0. -1.
         11    1    4    4    0    0 -0.40837422329E-01 -0.54253744036E-01  0.33978321072E-01  0.75933860881E-01  0.51100000000E-03 0.  1.
</event>
<event>
 8    1  0.1166736E+005  0.1043930E+01  0.7957747E-01            NaN
         13   -1    0    0    0    0  0.00000000000E+00  0.00000000000E+00  0.74505805969E-08  0.10566000000E+00  0.10566000000E+00 0. -1.
     999900   -1    0    0    0    0 -0.00000000000E+00 -0.00000000000E+00 -0.74505805969E-08  0.93827000000E+00  0.93827000000E+00 0.  1.
     999902    2    1    2    0    0 -0.21160504671E-02  0.62435043977E-02 -0.23848911199E-01  0.10191867265E+01  0.10188863302E+01 0.  0.
     999903    2    3    3    0    0 -0.22506571365E-01  0.90011622240E-01 -0.92289428459E-01  0.13232880368E+00  0.19619780476E-01 0.  0.
         14    1    1    2    0    0  0.21160504671E-02 -0.62435043977E-02  0.23848911199E-01  0.24743273473E-01  0.00000000000E+00 0. -1.
     999901    1    3    3    0    0  0.20390520898E-01 -0.83768117843E-01  0.68440517259E-01  0.88685792284E+00  0.88000000000E+00 0.  1.
        -11    1    4    4    0    0 -0.68528460242E-02  0.27276676014E-01 -0.16140833863E-01  0.32430944972E-01  0.51100000000E-03 0. -1.
         11    1    4    4    0    0 -0.15653725341E-01  0.62734946227E-01 -0.76148594596E-01  0.99897858711E-01  0.51100000000E-03 0.  1.
</event>
<event>
 8    1  0.1166736E+005  0.1043930E+01  0.7957747E-01            NaN
         13   -1    0    0    0    0  0.00000000000E+00  0.00000000000E+00  0.74505805969E-08  0.10566000000E+00  0.10566000000E+00 0. -1.
     999900   -1    0    0    0    0 -0.00000000000E+00 -0.00000000000E+00 -0.74505805969E-08  0.93827000000E+00  0.93827000000E+00 0.  1.
     999902    2    1    2    0    0 -0.15364794699E-02 -0.21036488215E-01 -0.10640709041E-01  0.10203054514E+01  0.10200319088E+01 0.  0.
     999903    2    3    3    0    0  0.51785805217E-01 -0.76992069879E-01 -0.92545978048E-01  0.13312859971E+00  0.23428989765E-01 0.  0.
         14    1    1    2    0    0  0.15364794699E-02  0.21036488215E-01  0.10640709041E-01  0.23624548556E-01  0.00000000000E+00 0. -1.
     999901    1    3    3    0    0 -0.53322284687E-01  0.55955581664E-01  0.81905269007E-01  0.88717685174E+00  0.88000000000E+00 0. -1.
        -11    1    4    4    0    0  0.87788514420E-02 -0.23769113321E-01 -0.13991900040E-01  0.28949496860E-01  0.51100000000E-03 0.  1.
         11    1    4    4    0    0  0.43006953775E-01 -0.53222956557E-01 -0.78554078008E-01  0.10417910285E+00  0.51100000000E-03 0. -1.
</event>
<event>
 8    1  0.1166736E+005  0.1043930E+01  0.7957747E-01            NaN
         13   -1    0    0    0    0  0.00000000000E+00  0.00000000000E+00  0.74505805969E-08  0.10566000000E+00  0.10566000000E+00 0.  1.
     999900   -1    0    0    0    0 -0.00000000000E+00 -0.00000000000E+00 -0.74505805969E-08  0.93827000000E+00  0.93827000000E+00 0.  1.
     999902    2    1    2    0    0  0.24343975610E-01  0.54870223313E-02 -0.48801278046E-02  0.10185026091E+01  0.10181851563E+01 0.  0.
     999903    2    3    3    0    0  0.89732020486E-01 -0.28987334344E-01  0.88134427615E-01  0.13051849591E+00  0.19372645454E-01 0.  0.
         14    1    1    2    0    0 -0.24343975610E-01 -0.54870223313E-02  0.48801278046E-02  0.25427390939E-01  0.00000000000E+00 0. -1.
     999901    1    3    3    0    0 -0.65388044875E-01  0.34474356675E-01 -0.93014555420E-01  0.88798411315E+00  0.88000000000E+00 0.  1.
        -11    1    4    4    0    0  0.58142029419E-01 -0.18882306898E-01  0.69152911934E-01  0.92300722905E-01  0.51100000000E-03 0.  1.
         11    1    4    4    0    0  0.31589991066E-01 -0.10105027445E-01  0.18981515681E-01  0.38217773009E-01  0.51100000000E-03 0. -1.
</event>
<event>
 8    1  0.1166736E+005  0.1043930E+01  0.7957747E-01            NaN
         13   -1    0    0    0    0  0.00000000000E+00  0.00000000000E+00  0.74505805969E-08  0.10566000000E+00  0.10566000000E+00 0. -1.
     999900   -1    0    0    0    0 -0.00000000000E+00 -0.00000000000E+00 -0.74505805969E-08  0.93827000000E+00  0.93827000000E+00 0.  1.
     999902    2    1    2    0    0 -0.10454957975E-02 -0.28534236891E-03  0.24196879968E-01  0.10197088629E+01  0.10194211601E+01 0.  0.
     999903    2    3    3    0    0 -0.70275834281E-03  0.11199380446E+00  0.65998063562E-01  0.13159059194E+00  0.20426291539E-01 0.  0.
         14    1    1    2    0    0  0.10454957975E-02  0.28534236891E-03 -0.24196879968E-01  0.24221137090E-01  0.00000000000E+00 0.  1.
     999901    1    3    3    0    0 -0.34273745473E-03 -0.11227914683E+00 -0.41801183593E-01  0.88811827097E+00  0.88000000000E+00 0.  1.
        -11    1    4    4    0    0 -0.56218806888E-02  0.61456180506E-01  0.46185542083E-01  0.77083286667E-01  0.51100000000E-03 0.  1.
         11    1    4    4    0    0  0.49191223460E-02  0.50537623955E-01  0.19812521478E-01  0.54507305272E-01  0.51100000000E-03 0. -1.
</event>
<event>
 8    1  0.1166736E+005  0.1043930E+01  0.7957747E-01            NaN
         13   -1    0    0    0    0  0.00000000000E+00  0.00000000000E+00  0.74505805969E-08  0.10566000000E+00  0.10566000000E+00 0. -1.
     999900   -1    0    0    0    0 -0.00000000000E+00 -0.00000000000E+00 -0.74505805969E-08  0.93827000000E+00  0.93827000000E+00 0. -1.
     999902    2    1    2    0    0 -0.16873458472E-01  0.14469946339E-01 -0.95299715878E-02  0.10197450190E+01  0.10194581848E+01 0.  0.
     999903    2    3    3    0    0  0.80660738268E-01  0.96837152370E-01 -0.26218617217E-01  0.13037682356E+00  0.20666674977E-01 0.  0.
         14    1    1    2    0    0  0.16873458472E-01 -0.14469946339E-01  0.95299715878E-02  0.24184981007E-01  0.00000000000E+00 0. -1.
     999901    1    3    3    0    0 -0.97534196740E-01 -0.82367206030E-01  0.16688645629E-01  0.88936819544E+00  0.88000000000E+00 0.  1.
        -11    1    4    4    0    0  0.29335565617E-01  0.24044773704E-01 -0.14181845838E-01  0.40498301507E-01  0.51100000000E-03 0. -1.
         11    1    4    4    0    0  0.51325172651E-01  0.72792378665E-01 -0.12036771379E-01  0.89878522048E-01  0.51100000000E-03 0.  1.
</event>
<event>
 8    1  0.1166736E+005  0.1043930E+01  0.7957747E-01            NaN
         13   -1    0    0    0    0  0.00000000000E+00  0.00000000000E+00  0.74505805969E-08  0.10566000000E+00  0.10566000000E+00 0.  1.
     999900   -1    0    0    0    0 -0.00000000000E+00 -0.00000000000E+00 -0.74505805969E-08  0.93827000000E+00  0.93827000000E+00 0.  1.
     999902    2    1    2    0    0 -0.13036861315E-01 -0.22825385355E-02  0.20601905072E-01  0.10194431009E+01  0.10191489723E+01 0.  0.
     999903    2    3    3    0    0 -0.84521886145E-01  0.57264352490E-01  0.81655870049E-01  0.13243491173E+00  0.21170012479E-01 0.  0.
         14    1    1    2    0    0  0.13036861315E-01  0.22825385355E-02 -0.20601905072E-01  0.24486899103E-01  0.00000000000E+00 0. -1.
     999901    1    3    3    0    0  0.71485024831E-01 -0.59546891026E-01 -0.61053964977E-01  0.88700818916E+00  0.88000000000E+00 0.  1.
        -11    1    4    4    0    0 -0.40886564275E-01  0.15332925037E-01  0.31730040070E-01  0.53980239831E-01  0.51100000000E-03 0.  1.
         11    1    4    4    0    0 -0.43635321870E-01  0.41931427453E-01  0.49925829979E-01  0.78454671901E-01  0.51100000000E-03 0. -1.
</event>
<event>
 7    1  0.1166736E+005  0.1043930E+01  0.7957747E-01            NaN
         13   -1    0    0    0    0  0.00000000000E+00  0.00000000000E+00  0.74505805969E-08  0.10566000000E+00  0.10566000000E+00 0. -1.
     999900   -1    0    0    0    0 -0.00000000000E+00 -0.00000000000E+00 -0.74505805969E-08  0.93827000000E+00  0.93827000000E+00 0.  1.
     999902    2    1    2    0    0 -0.13515652621E-01  0.50721215428E-02 -0.19140152537E-01  0.10199561659E+01  0.10196743772E+01 0.  0.
         14    1    1    2    0    0  0.13515652621E-01 -0.50721215428E-02  0.19140152537E-01  0.23973834108E-01  0.00000000000E+00 0. -1.
     999901    1    3    3    0    0  0.10626938896E+00  0.23369075222E-01  0.92335189921E-02  0.88674943168E+00  0.88000000000E+00 0.  1.
        -11    1    3    3    0    0 -0.54295675906E-01  0.14670935483E-01 -0.18578702735E-01  0.59234163169E-01  0.51100000000E-03 0. -1.
         11    1    3    3    0    0 -0.65489365676E-01 -0.32967889162E-01 -0.97949687941E-02  0.73972571045E-01  0.51100000000E-03 0.  1.
</event>
<event>
 8    1  0.1166736E+005  0.1043930E+01  0.7957747E-01            NaN
         13   -1    0    0    0    0  0.00000000000E+00  0.00000000000E+00  0.74505805969E-08  0.10566000000E+00  0.10566000000E+00 0.  1.
     999900   -1    0    0    0    0 -0.00000000000E+00 -0.00000000000E+00 -0.74505805969E-08  0.93827000000E+00  0.93827000000E+00 0.  1.
     999902    2    1    2    0    0 -0.15546093850E-01  0.39623168575E-02 -0.18067091624E-01  0.10197680301E+01  0.10194817480E+01 0.  0.
     999903    2    3    3    0    0  0.94041560650E-01  0.86243205546E-01 -0.11043598868E-01  0.12913402666E+00  0.16490304222E-01 0.  0.
         14    1    1    2    0    0  0.15546093850E-01 -0.39623168575E-02  0.18067091624E-01  0.24161969883E-01  0.00000000000E+00 0. -1.
     999901    1    3    3    0    0 -0.10958765450E+00 -0.82280888689E-01 -0.70234927560E-02  0.89063400346E+00  0.88000000000E+00 0. -1.
        -11    1    4    4    0    0  0.39648693047E-01  0.42552032692E-01  0.18062348591E-02  0.58191218856E-01  0.51100000000E-03 0.  1.
         11    1    4    4    0    0  0.54392867603E-01  0.43691172854E-01 -0.12849833727E-01  0.70942807805E-01  0.51100000000E-03 0. -1.
</event>
<event>
 8    1  0.1166736E+005  0.1043930E+01  0.7957747E-01            NaN
         13   -1    0    0    0    0  0.00000000000E+00  0.00000000000E+00  0.74505805969E-08  0.10566000000E+00  0.10566000000E+00 0. -1.
     999900   -1    0    0    0    0 -0.00000000000E+00 -0.00000000000E+00 -0.74505805969E-08  0.93827000000E+00  0.93827000000E+00 0. -1.
     999902    2    1    2    0    0 -0.52409564067E-02 -0.21627730444E-01  0.40998570602E-02  0.10213018057E+01  0.10210510973E+01 0.  0.
     999903    2    3    3    0    0 -0.58099273766E-02  0.96864615033E-01  0.83639245797E-01  0.12980459652E+00  0.20909350492E-01 0.  0.
         14    1    1    2    0    0  0.52409564067E-02  0.21627730444E-01 -0.40998570602E-02  0.22628194275E-01  0.00000000000E+00 0.  1.
     999901    1    3    3    0    0  0.56897096992E-03 -0.11849234548E+00 -0.79539388737E-01  0.89149720921E+00  0.88000000000E+00 0. -1.
        -11    1    4    4    0    0 -0.55496481833E-02  0.77178857602E-01  0.76623690351E-01  0.10889823552E+00  0.51100000000E-03 0. -1.
         11    1    4    4    0    0 -0.26027919337E-03  0.19685757430E-01  0.70155554463E-02  0.20906360996E-01  0.51100000000E-03 0.  1.
</event>
<event>
 8    1  0.1166736E+005  0.1043930E+01  0.7957747E-01            NaN
         13   -1    0    0    0    0  0.00000000000E+00  0.00000000000E+00  0.74505805969E-08  0.10566000000E+00  0.10566000000E+00 0. -1.
     999900   -1    0    0    0    0 -0.00000000000E+00 -0.00000000000E+00 -0.74505805969E-08  0.93827000000E+00  0.93827000000E+00 0. -1.
     999902    2    1    2    0    0 -0.66069329870E-02  0.96150415718E-02 -0.19758985213E-01  0.10209840181E+01  0.10207261372E+01 0.  0.
     999903    2    3    3    0    0  0.10127486457E+00  0.15727079527E-01  0.76147110274E-01  0.12920275659E+00  0.19774495814E-01 0.  0.
         14    1    1    2    0    0  0.66069329870E-02 -0.96150415718E-02  0.19758985213E-01  0.22945981883E-01  0.00000000000E+00 0. -1.
     999901    1    3    3    0    0 -0.10788179756E+00 -0.61120379554E-02 -0.95906095487E-01  0.89178126152E+00  0.88000000000E+00 0. -1.
        -11    1    4    4    0    0  0.78877109170E-01  0.48731105402E-02  0.52579501008E-01  0.94922129161E-01  0.51100000000E-03 0. -1.
         11    1    4    4    0    0  0.22397755399E-01  0.10853968987E-01  0.23567609267E-01  0.34280627433E-01  0.51100000000E-03 0.  1.
</event>
<event>
 8    1  0.1166736E+005  0.1043930E+01  0.7957747E-01            NaN
         13   -1    0    0    0    0  0.00000000000E+00  0.00000000000E+00  0.74505805969E-08  0.10566000000E+00  0.10566000000E+00 0.  1.
     999900   -1    0    0    0    0 -0.00000000000E+00 -0.00000000000E+00 -0.74505805969E-08  0.93827000000E+00  0.93827000000E+00 0. -1.
     999902    2    1    2    0    0 -0.77931258799E-02  0.10931628637E-01 -0.19675165617E-01  0.10201109854E+01  0.10198328672E+01 0.  0.
     999903    2    3    3    0    0  0.10409842681E+00  0.61351989343E-01 -0.47060293061E-01  0.13117236120E+00  0.19772913279E-01 0.  0.
         14    1    1    2    0    0  0.77931258799E-02 -0.10931628637E-01  0.19675165617E-01  0.23819014624E-01  0.00000000000E+00 0.  1.
     999901    1    3    3    0    0 -0.11189155269E+00 -0.50420360706E-01  0.27385127444E-01  0.88893862417E+00  0.88000000000E+00 0.  1.
        -11    1    4    4    0    0  0.79138715722E-01  0.47596486806E-01 -0.26663948203E-01  0.96122781572E-01  0.51100000000E-03 0.  1.
         11    1    4    4    0    0  0.24959711092E-01  0.13755502537E-01 -0.20396344858E-01  0.35049579632E-01  0.51100000000E-03 0. -1.
</event>
<event>
 8    1  0.1166736E+005  0.1043930E+01  0.7957747E-01            NaN
         13   -1    0    0    0    0  0.00000000000E+00  0.00000000000E+00  0.74505805969E-08  0.10566000000E+00  0.10566000000E+00 0. -1.
     999900   -1    0    0    0    0 -0.00000000000E+00 -0.00000000000E+00 -0.74505805969E-08  0.93827000000E+00  0.93827000000E+00 0. -1.
     999902    2    1    2    0    0  0.19717669641E-01  0.10020024278E-01 -0.81925933023E-02  0.10203438607E+01  0.10200712172E+01 0.  0.
     999903    2    3    3    0    0  0.68490117551E-01  0.14190825632E-01  0.10881644610E+00  0.13125035460E+00  0.22211729038E-01 0.  0.
         14    1    1    2    0    0 -0.19717669641E-01 -0.10020024278E-01  0.81925933023E-02  0.23586139311E-01  0.00000000000E+00 0. -1.
     999901    1    3    3    0    0 -0.48772447910E-01 -0.41708013544E-02 -0.11700903941E+00  0.88909350608E+00  0.88000000000E+00 0. -1.
        -11    1    4    4    0    0  0.40718368064E-01  0.16013868052E-01  0.51847043210E-01  0.67843986310E-01  0.51100000000E-03 0. -1.
         11    1    4    4    0    0  0.27771749487E-01 -0.18230424199E-02  0.56969402893E-01  0.63406368294E-01  0.51100000000E-03 0.  1.
</event>
<event>
 8    1  0.1166736E+005  0.1043930E+01  0.7957747E-01            NaN
         13   -1    0    0    0    0  0.00000000000E+00  0.00000000000E+00  0.74505805969E-08  0.10566000000E+00  0.10566000000E+00 0.  1.
     999900   -1    0    0    0    0 -0.00000000000E+00 -0.00000000000E+00 -0.74505805969E-08  0.93827000000E+00  0.93827000000E+00 0.  1.
     999902    2    1    2    0    0  0.12934183055E-01  0.19862469408E-01  0.26088687703E-02  0.10200843090E+01  0.10198055602E+01 0.  0.
     999903    2    3    3    0    0 -0.12294831487E+00 -0.18489825884E-01  0.21949664550E-01  0.12861977344E+00  0.24558024259E-01 0.  0.
         14    1    1    2    0    0 -0.12934183055E-01 -0.19862469408E-01 -0.26088687703E-02  0.23845690985E-01  0.00000000000E+00 0.  1.
     999901    1    3    3    0    0  0.13588249793E+00  0.38352295293E-01 -0.19340795780E-01  0.89146453557E+00  0.88000000000E+00 0. -1.
        -11    1    4    4    0    0 -0.83480351046E-01 -0.20288339910E-01  0.23530339317E-01  0.89075943646E-01  0.51100000000E-03 0.  1.
         11    1    4    4    0    0 -0.39467963828E-01  0.17985140252E-02 -0.15806747672E-02  0.39543829799E-01  0.51100000000E-03 0. -1.
</event>
<event>
 8    1  0.1166736E+005  0.1043930E+01  0.7957747E-01            NaN
         13   -1    0    0    0    0  0.00000000000E+00  0.00000000000E+00  0.74505805969E-08  0.10566000000E+00  0.10566000000E+00 0. -1.
     999900   -1    0    0    0    0 -0.00000000000E+00 -0.00000000000E+00 -0.74505805969E-08  0.93827000000E+00  0.93827000000E+00 0.  1.
     999902    2    1    2    0    0  0.13469828506E-01  0.17139382759E-01 -0.11512936512E-01  0.10192775675E+01  0.10189793998E+01 0.  0.
     999903    2    3    3    0    0  0.77756521123E-01 -0.10079365845E+00  0.55170918862E-02  0.12892314204E+00  0.19629062406E-01 0.  0.
         14    1    1    2    0    0 -0.13469828506E-01 -0.17139382759E-01  0.11512936512E-01  0.24652432506E-01  0.00000000000E+00 0. -1.
     999901    1    3    3    0    0 -0.64286692617E-01  0.11793304120E+00 -0.17030028398E-01  0.89035442545E+00  0.88000000000E+00 0. -1.
        -11    1    4    4    0    0  0.29584880314E-01 -0.53126190410E-01  0.63972351949E-02  0.61146079104E-01  0.51100000000E-03 0.  1.
         11    1    4    4    0    0  0.48171640809E-01 -0.47667468036E-01 -0.88014330869E-03  0.67777062938E-01  0.51100000000E-03 0. -1.
</event>
<event>
 8    1  0.1166736E+005  0.1043930E+01  0.7957747E-01            NaN
         13   -1    0    0    0    0  0.00000000000E+00  0.00000000000E+00  0.74505805969E-08  0.10566000000E+00  0.10566000000E+00 0. -1.
     999900   -1    0    0    0    0 -0.00000000000E+00 -0.00000000000E+00 -0.74505805969E-08  0.93827000000E+00  0.93827000000E+00 0. -1.
     999902    2    1    2    0    0 -0.17141032545E-01 -0.65096418412E-02 -0.14031179398E-01  0.10208418119E+01  0.10205806879E+01 0.  0.
     999903    2    3    3    0    0 -0.39516261357E-01 -0.77843599777E-01  0.95492641178E-01  0.13090661670E+00  0.19913232742E-01 0.  0.
         14    1    1    2    0    0  0.17141032545E-01  0.65096418412E-02  0.14031179398E-01  0.23088188082E-01  0.00000000000E+00 0. -1.
     999901    1    3    3    0    0  0.22375228812E-01  0.71333957936E-01 -0.10952382058E+00  0.88993519522E+00  0.88000000000E+00 0. -1.
        -11    1    4    4    0    0 -0.14016996861E-01 -0.30810083750E-01  0.51546048500E-01  0.61668417352E-01  0.51100000000E-03 0. -1.
         11    1    4    4    0    0 -0.25499264495E-01 -0.47033516027E-01  0.43946592678E-01  0.69238199346E-01  0.51100000000E-03 0.  1.
</event>
<event>
 8    1  0.1166736E+005  0.1043930E+01  0.7957747E-01            NaN
         13   -1    0    0    0    0  0.00000000000E+00  0.00000000000E+00  0.74505805969E-08  0.10566000000E+00  0.10566000000E+00 0.  1.
     999900   -1    0    0    0    0 -0.00000000000E+00 -0.00000000000E+00 -0.74505805969E-08  0.93827000000E+00  0.93827000000E+00 0.  1.
     999902    2    1    2    0    0 -0.93941530128E-02 -0.37833816463E-03  0.22730789590E-01  0.10193315845E+01  0.10190347379E+01 0.  0.
     999903    2    3    3    0    0  0.11696416876E+00 -0.18147222093E-01 -0.43509467110E-01  0.12766464536E+00  0.19880882840E-01 0.  0.
         14    1    1    2    0    0  0.93941530128E-02  0.37833816463E-03 -0.22730789590E-01  0.24598415518E-01  0.00000000000E+00 0. -1.
     999901    1    3    3    0    0 -0.12635832177E+00  0.17768883928E-01  0.66240256700E-01  0.89166693912E+00  0.88000000000E+00 0. -1.
        -11    1    4    4    0    0  0.91776014442E-01 -0.12218623916E-01 -0.25180530951E-01  0.95950257202E-01  0.51100000000E-03 0.  1.
         11    1    4    4    0    0  0.25188154320E-01 -0.59285981772E-02 -0.18328936160E-01  0.31714388157E-01  0.51100000000E-03 0. -1.
</event>
<event>
 8    1  0.1166736E+005  0.1043930E+01  0.7957747E-01            NaN
         13   -1    0    0    0    0  0.00000000000E+00  0.00000000000E+00  0.74505805969E-08  0.10566000000E+00  0.10566000000E+00 0. -1.
     999900   -1    0    0    0    0 -0.00000000000E+00 -0.00000000000E+00 -0.74505805969E-08  0.93827000000E+00  0.93827000000E+00 0.  1.
     999902    2    1    2    0    0  0.10067455674E-01 -0.11025772950E-01 -0.87835767725E-02  0.10266073976E+01  0.10264612395E+01 0.  0.
     999903    2    3    3    0    0  0.73067703918E-01 -0.90222301443E-01  0.70623429820E-01  0.13725561450E+00  0.19299788597E-01 0.  0.
         14    1    1    2    0    0 -0.10067455674E-01  0.11025772950E-01  0.87835767725E-02  0.17322602397E-01  0.00000000000E+00 0.  1.
     999901    1    3    3    0    0 -0.63000248244E-01  0.79196528492E-01 -0.79407006593E-01  0.88935178310E+00  0.88000000000E+00 0.  1.
        -11    1    4    4    0    0  0.49104804256E-01 -0.73718325389E-01  0.54065703309E-01  0.10377395962E+00  0.51100000000E-03 0.  1.
         11    1    4    4    0    0  0.23962899662E-01 -0.16503976053E-01  0.16557726511E-01  0.33481654888E-01  0.51100000000E-03 0. -1.
</event>
<event>
 8    1  0.1166736E+005  0.1043930E+01  0.7957747E-01            NaN
         13   -1    0    0    0    0  0.00000000000E+00  0.00000000000E+00  0.74505805969E-08  0.10566000000E+00  0.10566000000E+00 0.  1.
     999900   -1    0    0    0    0 -0.00000000000E+00 -0.00000000000E+00 -0.74505805969E-08  0.93827000000E+00  0.93827000000E+00 0.  1.
     999902    2    1    2    0    0  0.60453121996E-02  0.14812877888E-01  0.17431129690E-01  0.10202696654E+01  0.10199952837E+01 0.  0.
     999903    2    3    3    0    0 -0.17282922883E-01  0.12195833531E+00  0.45112966198E-01  0.13303201986E+00  0.22131507288E-01 0.  0.
         14    1    1    2    0    0 -0.60453121996E-02 -0.14812877888E-01 -0.17431129690E-01  0.23660334596E-01  0.00000000000E+00 0.  1.
     999901    1    3    3    0    0  0.23328235082E-01 -0.10714545742E+00 -0.27681836508E-01  0.88723764554E+00  0.88000000000E+00 0.  1.
        -11    1    4    4    0    0 -0.63709521231E-02  0.17463108623E-01 -0.23762475480E-03  0.18597493924E-01  0.51100000000E-03 0.  1.
         11    1    4    4    0    0 -0.10911970759E-01  0.10449522668E+00  0.45350590952E-01  0.11443452594E+00  0.51100000000E-03 0. -1.
</event>
<event>
 8    1  0.1166736E+005  0.1043930E+01  0.7957747E-01            NaN
         13   -1    0    0    0    0  0.00000000000E+00  0.00000000000E+00  0.74505805969E-08  0.10566000000E+00  0.10566000000E+00 0. -1.
     999900   -1    0    0    0    0 -0.00000000000E+00 -0.00000000000E+00 -0.74505805969E-08  0.93827000000E+00  0.93827000000E+00 0. -1.
     999902    2    1    2    0    0  0.33005462176E-03 -0.53327038313E-02  0.24190026817E-01  0.10191569488E+01  0.10188558202E+01 0.  0.
     999903    2    3    3    0    0 -0.10525813880E+00 -0.57350530560E-01  0.48972735434E-01  0.13097402650E+00  0.19685214326E-01 0.  0.
         14    1    1    2    0    0 -0.33005462176E-03  0.53327038313E-02 -0.24190026817E-01  0.24773051157E-01  0.00000000000E+00 0.  1.
     999901    1    3    3    0    0  0.10558819343E+00  0.52017826728E-01 -0.24782708617E-01  0.88818292234E+00  0.88000000000E+00 0. -1.
        -11    1    4    4    0    0 -0.35368398604E-01 -0.29753441998E-01  0.15965634128E-01  0.48901467510E-01  0.51100000000E-03 0.  1.
         11    1    4    4    0    0 -0.69889740200E-01 -0.27597088562E-01  0.33007101306E-01  0.82072558995E-01  0.51100000000E-03 0. -1.
</event>
<event>
 8    1  0.1166736E+005  0.1043930E+01  0.7957747E-01            NaN
         13   -1    0    0    0    0  0.00000000000E+00  0.00000000000E+00  0.74505805969E-08  0.10566000000E+00  0.10566000000E+00 0.  1.
     999900   -1    0    0    0    0 -0.00000000000E+00 -0.00000000000E+00 -0.74505805969E-08  0.93827000000E+00  0.93827000000E+00 0. -1.
     999902    2    1    2    0    0 -0.18090299757E-01  0.84412603237E-02 -0.11936168943E-01  0.10206708953E+01  0.10204058460E+01 0.  0.
     999903    2    3    3    0    0 -0.45344599312E-01  0.40035638924E-01  0.11462501956E+00  0.13063789816E+00  0.16382315360E-01 0.  0.
         14    1    1    2    0    0  0.18090299757E-01 -0.84412603237E-02  0.11936168943E-01  0.23259104673E-01  0.00000000000E+00 0.  1.
     999901    1    3    3    0    0  0.27254299555E-01 -0.31594378601E-01 -0.12656118850E+00  0.89003299716E+00  0.88000000000E+00 0. -1.
        -11    1    4    4    0    0 -0.84019726796E-03  0.18949174118E-02  0.29067154545E-03  0.21545891473E-02  0.51100000000E-03 0. -1.
         11    1    4    4    0    0 -0.44504402044E-01  0.38140721512E-01  0.11433434802E+00  0.12848330902E+00  0.51100000000E-03 0.  1.
</event>
<event>
 8    1  0.1166736E+005  0.1043930E+01  0.7957747E-01            NaN
         13   -1    0    0    0    0  0.00000000000E+00  0.00000000000E+00  0.74505805969E-08  0.10566000000E+00  0.10566000000E+00 0.  1.
     999900   -1    0    0    0    0 -0.00000000000E+00 -0.00000000000E+00 -0.74505805969E-08  0.93827000000E+00  0.93827000000E+00 0. -1.
     999902    2    1    2    0    0 -0.19137253110E-01 -0.12932965427E-01  0.53739683554E-02  0.10202155405E+01  0.10199398872E+01 0.  0.
     999903    2    3    3    0    0  0.78242462909E-01 -0.97255411515E-01 -0.29607308759E-01  0.13014993973E+00  0.21952585464E-01 0.  0.
         14    1    1    2    0    0  0.19137253110E-01  0.12932965427E-01 -0.53739683554E-02  0.23714459455E-01  0.00000000000E+00 0. -1.
     999901    1    3    3    0    0 -0.97379716020E-01  0.84322446088E-01  0.34981277114E-01  0.89006560082E+00  0.88000000000E+00 0. -1.
        -11    1    4    4    0    0  0.12988972608E-01 -0.31413655931E-01 -0.93969571905E-02  0.35271732504E-01  0.51100000000E-03 0. -1.
         11    1    4    4    0    0  0.65253490301E-01 -0.65841755584E-01 -0.20210351568E-01  0.94878207226E-01  0.51100000000E-03 0.  1.
</event>
<event>
 8    1  0.1166736E+005  0.1043930E+01  0.7957747E-01            NaN
         13   -1    0    0    0    0  0.00000000000E+00  0.00000000000E+00  0.74505805969E-08  0.10566000000E+00  0.10566000000E+00 0. -1.
     999900   -1    0    0    0    0 -0.00000000000E+00 -0.00000000000E+00 -0.74505805969E-08  0.93827000000E+00  0.93827000000E+00 0. -1.
     999902    2    1    2    0    0 -0.26214384359E-01  0.14682884178E-01  0.23085194616E-01  0.10060392723E+01  0.10053254747E+01 0.  0.
     999903    2    3    3    0    0  0.59543814188E-02 -0.11382500574E+00  0.34305371694E-02  0.11590702773E+00  0.20762560100E-01 0.  0.
         14    1    1    2    0    0  0.26214384359E-01 -0.14682884178E-01 -0.23085194616E-01  0.37890727699E-01  0.00000000000E+00 0.  1.
     999901    1    3    3    0    0 -0.32168765777E-01  0.12850788992E+00  0.19654657447E-01  0.89013224457E+00  0.88000000000E+00 0. -1.
        -11    1    4    4    0    0  0.12268947300E-01 -0.50011743304E-01  0.51731504714E-02  0.51756392291E-01  0.51100000000E-03 0. -1.
         11    1    4    4    0    0 -0.63145658812E-02 -0.63813262438E-01 -0.17426133021E-02  0.64150635440E-01  0.51100000000E-03 0.  1.
</event>
<event>
 8    1  0.1166736E+005  0.1043930E+01  0.7957747E-01            NaN
         13   -1    0    0    0    0  0.00000000000E+00  0.00000000000E+00  0.74505805969E-08  0.10566000000E+00  0.10566000000E+00 0. -1.
     999900   -1    0    0    0    0 -0.00000000000E+00 -0.00000000000E+00 -0.74505805969E-08  0.93827000000E+00  0.93827000000E+00 0.  1.
     999902    2    1    2    0    0 -0.13744748740E-02  0.64191317451E-03  0.24288567781E-01  0.10195941056E+01  0.10193036370E+01 0.  0.
     999903    2    3    3    0    0  0.11254337084E+00 -0.29250995767E-02 -0.58526516445E-01  0.12838799172E+00  0.19584605275E-01 0.  0.
         14    1    1    2    0    0  0.13744748740E-02 -0.64191317451E-03 -0.24288567781E-01  0.24335894448E-01  0.00000000000E+00 0.  1.
     999901    1    3    3    0    0 -0.11391784571E+00  0.35670127512E-02  0.82815084226E-01  0.89120611383E+00  0.88000000000E+00 0.  1.
        -11    1    4    4    0    0  0.37032180590E-01  0.13027944321E-02 -0.95011750507E-02  0.38257196982E-01  0.51100000000E-03 0.  1.
         11    1    4    4    0    0  0.75511190250E-01 -0.42278940088E-02 -0.49025341394E-01  0.90130794741E-01  0.51100000000E-03 0. -1.
</event>
<event>
 8    1  0.1166736E+005  0.1043930E+01  0.7957747E-01            NaN
         13   -1    0    0    0    0  0.00000000000E+00  0.00000000000E+00  0.74505805969E-08  0.10566000000E+00  0.10566000000E+00 0.  1.
     999900   -1    0    0    0    0 -0.00000000000E+00 -0.00000000000E+00 -0.74505805969E-08  0.93827000000E+00  0.93827000000E+00 0. -1.
     999902    2    1    2    0    0  0.84809705698E-02  0.13095140603E-01 -0.17959633956E-01  0.10201401278E+01  0.10198626977E+01 0.  0.
     999903    2    3    3    0    0 -0.86602884423E-01  0.62989064101E-01 -0.75010455602E-01  0.13177919924E+00  0.16477472956E-01 0.  0.
         14    1    1    2    0    0 -0.84809705698E-02 -0.13095140603E-01  0.17959633956E-01  0.23789872237E-01  0.00000000000E+00 0. -1.
     999901    1    3    3    0    0  0.95083854993E-01 -0.49893923498E-01  0.57050821646E-01  0.88836092853E+00  0.88000000000E+00 0.  1.
        -11    1    4    4    0    0 -0.42695991083E-01  0.29043407048E-01 -0.26386488340E-01  0.57991163425E-01  0.51100000000E-03 0. -1.
         11    1    4    4    0    0 -0.43906893340E-01  0.33945657053E-01 -0.48623967262E-01  0.73788035811E-01  0.51100000000E-03 0.  1.
</event>
<event>
 8    1  0.1166736E+005  0.1043930E+01  0.7957747E-01            NaN
         13   -1    0    0    0    0  0.00000000000E+00  0.00000000000E+00  0.74505805969E-08  0.10566000000E+00  0.10566000000E+00 0. -1.
     999900   -1    0    0    0    0 -0.00000000000E+00 -0.00000000000E+00 -0.74505805969E-08  0.93827000000E+00  0.93827000000E+00 0.  1.
     999902    2    1    2    0    0  0.11061154778E-01  0.19581049015E-01 -0.93761118702E-02  0.10195644896E+01  0.10192733050E+01 0.  0.
     999903    2    3    3    0    0  0.88358871081E-01  0.74313253440E-01 -0.62525491471E-01  0.13288788126E+00  0.20493954368E-01 0.  0.
         14    1    1    2    0    0 -0.11061154778E-01 -0.19581049015E-01  0.93761118702E-02  0.24365510447E-01  0.00000000000E+00 0. -1.
     999901    1    3    3    0    0 -0.77297716302E-01 -0.54732204425E-01  0.53149379601E-01  0.88667660830E+00  0.88000000000E+00 0.  1.
        -11    1    4    4    0    0  0.29802267784E-01  0.13296371555E-01 -0.19176473335E-01  0.37854549424E-01  0.51100000000E-03 0.  1.
         11    1    4    4    0    0  0.58556603297E-01  0.61016881886E-01 -0.43349018137E-01  0.95033331832E-01  0.51100000000E-03 0. -1.
</event>
<event>
 8    1  0.1166736E+005  0.1043930E+01  0.7957747E-01            NaN
         13   -1    0    0    0    0  0.00000000000E+00  0.00000000000E+00  0.74505805969E-08  0.10566000000E+00  0.10566000000E+00 0.  1.
     999900   -1    0    0    0    0 -0.00000000000E+00 -0.00000000000E+00 -0.74505805969E-08  0.93827000000E+00  0.93827000000E+00 0. -1.
     999902    2    1    2    0    0 -0.21789959645E-01 -0.18915432474E-02 -0.79320441787E-02  0.10206641967E+01  0.10203989930E+01 0.  0.
     999903    2    3    3    0    0  0.72239089537E-01 -0.31670572426E-01 -0.10139164049E+00  0.13023567696E+00  0.21437247429E-01 0.  0.
         14    1    1    2    0    0  0.21789959645E-01  0.18915432474E-02  0.79320441787E-02  0.23265803276E-01  0.00000000000E+00 0. -1.
     999901    1    3    3    0    0 -0.94029049183E-01  0.29779029178E-01  0.93459596309E-01  0.89042851977E+00  0.88000000000E+00 0.  1.
        -11    1    4    4    0    0  0.82463852009E-02  0.31508809756E-02 -0.12281398706E-01  0.15133565177E-01  0.51100000000E-03 0.  1.
         11    1    4    4    0    0  0.63992704336E-01 -0.34821453401E-01 -0.89110241782E-01  0.11510211178E+00  0.51100000000E-03 0. -1.
</event>
<event>
 8    1  0.1166736E+005  0.1043930E+01  0.7957747E-01            NaN
         13   -1    0    0    0    0  0.00000000000E+00  0.00000000000E+00  0.74505805969E-08  0.10566000000E+00  0.10566000000E+00 0. -1.
     999900   -1    0    0    0    0 -0.00000000000E+00 -0.00000000000E+00 -0.74505805969E-08  0.93827000000E+00  0.93827000000E+00 0. -1.
     999902    2    1    2    0    0  0.21813517845E-01  0.37978240003E-02 -0.13120185409E-01  0.10181930170E+01  0.10178676867E+01 0.  0.
     999903    2    3    3    0    0 -0.97378277418E-01  0.78004090435E-01 -0.11990427652E-01  0.12706197705E+00  0.20828072872E-01 0.  0.
         14    1    1    2    0    0 -0.21813517845E-01 -0.37978240003E-02  0.13120185409E-01  0.25736982984E-01  0.00000000000E+00 0. -1.
     999901    1    3    3    0    0  0.11919179526E+00 -0.74206266435E-01 -0.11297577569E-02  0.89113103996E+00  0.88000000000E+00 0.  1.
        -11    1    4    4    0    0 -0.63951048243E-01  0.63240101305E-01 -0.78659343120E-02  0.90283891299E-01  0.51100000000E-03 0. -1.
         11    1    4    4    0    0 -0.33427229175E-01  0.14763989130E-01 -0.41244933402E-02  0.36778085753E-01  0.51100000000E-03 0.  1.
</event>
<event>
 8    1  0.1166736E+005  0.1043930E+01  0.7957747E-01            NaN
         13   -1    0    0    0    0  0.00000000000E+00  0.00000000000E+00  0.74505805969E-08  0.10566000000E+00  0.10566000000E+00 0.  1.
     999900   -1    0    0    0    0 -0.00000000000E+00 -0.00000000000E+00 -0.74505805969E-08  0.93827000000E+00  0.93827000000E+00 0. -1.
     999902    2    1    2    0    0 -0.13542329600E-01 -0.41893020404E-04  0.19611002414E-01  0.10200975041E+01  0.10198190673E+01 0.  0.
     999903    2    3    3    0    0 -0.66831807784E-01  0.92888508269E-01 -0.59037173644E-01  0.13011921021E+00  0.18731137001E-01 0.  0.
         14    1    1    2    0    0  0.13542329600E-01  0.41893020404E-04 -0.19611002414E-01  0.23832495918E-01  0.00000000000E+00 0. -1.
     999901    1    3    3    0    0  0.53289478183E-01 -0.92930401289E-01  0.78648176057E-01  0.88997829387E+00  0.88000000000E+00 0.  1.
        -11    1    4    4    0    0 -0.32174413716E-01  0.58991089250E-01 -0.38709053805E-01  0.77548652318E-01  0.51100000000E-03 0.  1.
         11    1    4    4    0    0 -0.34657394068E-01  0.33897419019E-01 -0.20328119839E-01  0.52570557891E-01  0.51100000000E-03 0. -1.
</event>
<event>
 8    1  0.1166736E+005  0.1043930E+01  0.7957747E-01            NaN
         13   -1    0    0    0    0  0.00000000000E+00  0.00000000000E+00  0.74505805969E-08  0.10566000000E+00  0.10566000000E+00 0.  1.
     999900   -1    0    0    0    0 -0.00000000000E+00 -0.00000000000E+00 -0.74505805969E-08  0.93827000000E+00  0.93827000000E+00 0.  1.
     999902    2    1    2    0    0 -0.21844501147E-01 -0.12890714335E-02 -0.92086549615E-02  0.10201888277E+01  0.10199125457E+01 0.  0.
     999903    2    3    3    0    0  0.11464330873E+00  0.38968414805E-01 -0.41107217892E-01  0.12818708681E+00  0.89721944325E-02 0.  0.
         14    1    1    2    0    0  0.21844501147E-01  0.12890714335E-02  0.92086549615E-02  0.23741172291E-01  0.00000000000E+00 0.  1.
     999901    1    3    3    0    0 -0.13648780988E+00 -0.40257486238E-01  0.31898562931E-01  0.89200174090E+00  0.88000000000E+00 0.  1.
        -11    1    4    4    0    0  0.74002238266E-01  0.27033826648E-01 -0.22633304703E-01  0.81973694893E-01  0.51100000000E-03 0.  1.
         11    1    4    4    0    0  0.40641070469E-01  0.11934588156E-01 -0.18473913189E-01  0.46213391921E-01  0.51100000000E-03 0. -1.
</event>
<event>
 8    1  0.1166736E+005  0.1043930E+01  0.7957747E-01            NaN
         13   -1    0    0    0    0  0.00000000000E+00  0.00000000000E+00  0.74505805969E-08  0.10566000000E+00  0.10566000000E+00 0.  1.
     999900   -1    0    0    0    0 -0.00000000000E+00 -0.00000000000E+00 -0.74505805969E-08  0.93827000000E+00  0.93827000000E+00 0. -1.
     999902    2    1    2    0    0 -0.54095578665E-02  0.20512684292E-01  0.12102488791E-01  0.10195065734E+01  0.10192139861E+01 0.  0.
     999903    2    3    3    0    0  0.67968749093E-01 -0.18813226524E-01 -0.10495826862E+00  0.12785971272E+00  0.18925634425E-01 0.  0.
         14    1    1    2    0    0  0.54095578665E-02 -0.20512684292E-01 -0.12102488791E-01  0.24423426626E-01  0.00000000000E+00 0.  1.
     999901    1    3    3    0    0 -0.73378306959E-01  0.39325910816E-01  0.11706075741E+00  0.89164686066E+00  0.88000000000E+00 0.  1.
        -11    1    4    4    0    0  0.33716617767E-01 -0.53013483157E-02 -0.35530778598E-01  0.49270802271E-01  0.51100000000E-03 0. -1.
         11    1    4    4    0    0  0.34252131326E-01 -0.13511878208E-01 -0.69427490024E-01  0.78588910446E-01  0.51100000000E-03 0.  1.
</event>
<event>
 8    1  0.1166736E+005  0.1043930E+01  0.7957747E-01            NaN
         13   -1    0    0    0    0  0.00000000000E+00  0.00000000000E+00  0.74505805969E-08  0.10566000000E+00  0.10566000000E+00 0. -1.
     999900   -1    0    0    0    0 -0.00000000000E+00 -0.00000000000E+00 -0.74505805969E-08  0.93827000000E+00  0.93827000000E+00 0.  1.
     999902    2    1    2    0    0 -0.21095471776E-01 -0.20836239435E-02 -0.93755769295E-02  0.10207510902E+01  0.10204878864E+01 0.  0.
     999903    2    3    3    0    0 -0.74471202519E-01  0.94325209277E-01  0.50506621131E-01  0.13185879669E+00  0.19814600110E-01 0.  0.
         14    1    1    2    0    0  0.21095471776E-01  0.20836239435E-02  0.93755769295E-02  0.23178909831E-01  0.00000000000E+00 0. -1.
     999901    1    3    3    0    0  0.53375730743E-01 -0.96408833221E-01 -0.59882198061E-01  0.88889229348E+00  0.88000000000E+00 0. -1.
        -11    1    4    4    0    0 -0.57014461613E-01  0.69941514698E-01  0.28404471926E-01  0.94602005569E-01  0.51100000000E-03 0.  1.
         11    1    4    4    0    0 -0.17456740906E-01  0.24383694579E-01  0.22102149206E-01  0.37256791125E-01  0.51100000000E-03 0. -1.
</event>
<event>
 8    1  0.1166736E+005  0.1043930E+01  0.7957747E-01            NaN
         13   -1    0    0    0    0  0.00000000000E+00  0.00000000000E+00  0.74505805969E-08  0.10566000000E+00  0.10566000000E+00 0.  1.
     999900   -1    0    0    0    0 -0.00000000000E+00 -0.00000000000E+00 -0.74505805969E-08  0.93827000000E+00  0.93827000000E+00 0.  1.
     999902    2    1    2    0    0 -0.92465059930E-02  0.10303888229E-01 -0.19380033900E-01  0.10201129116E+01  0.10198348389E+01 0.  0.
     999903    2    3    3    0    0 -0.86532633043E-01  0.93460578262E-01 -0.30374771755E-01  0.13275218180E+00  0.21857235510E-01 0.  0.
         14    1    1    2    0    0  0.92465059930E-02 -0.10303888229E-01  0.19380033900E-01  0.23817088396E-01  0.00000000000E+00 0.  1.
     999901    1    3    3    0    0  0.77286127050E-01 -0.83156690033E-01  0.10994737856E-01  0.88736072980E+00  0.88000000000E+00 0. -1.
        -11    1    4    4    0    0 -0.82813611880E-01  0.80734904528E-01 -0.24406874987E-01  0.11820395843E+00  0.51100000000E-03 0. -1.
         11    1    4    4    0    0 -0.37190211627E-02  0.12725673734E-01 -0.59678967687E-02  0.14548223370E-01  0.51100000000E-03 0.  1.
</event>
<event>
 8    1  0.1166736E+005  0.1043930E+01  0.7957747E-01            NaN
         13   -1    0    0    0    0  0.00000000000E+00  0.00000000000E+00  0.74505805969E-08  0.10566000000E+00  0.10566000000E+00 0. -1.
     999900   -1    0    0    0    0 -0.00000000000E+00 -0.00000000000E+00 -0.74505805969E-08  0.93827000000E+00  0.93827000000E+00 0.  1.
     999902    2    1    2    0    0  0.37757249244E-02 -0.23182547395E-01 -0.83856002969E-03  0.10204270260E+01  0.10201563241E+01 0.  0.
     999903    2    3    3    0    0 -0.12205664474E+00  0.29406956696E-01  0.24278489847E-01  0.12956771762E+00  0.20874739589E-01 0.  0.
         14    1    1    2    0    0 -0.37757249244E-02  0.23182547395E-01  0.83856002969E-03  0.23502973969E-01  0.00000000000E+00 0.  1.
     999901    1    3    3    0    0  0.12583236966E+00 -0.52589504091E-01 -0.25117049877E-01  0.89085930841E+00  0.88000000000E+00 0. -1.
        -11    1    4    4    0    0 -0.43388827162E-01  0.17736174264E-01  0.17556242684E-02  0.46909546338E-01  0.51100000000E-03 0. -1.
         11    1    4    4    0    0 -0.78667817573E-01  0.11670782432E-01  0.22522865579E-01  0.82658171279E-01  0.51100000000E-03 0.  1.
</event>
<event>
 8    1  0.1166736E+005  0.1043930E+01  0.7957747E-01            NaN
         13   -1    0    0    0    0  0.00000000000E+00  0.00000000000E+00  0.74505805969E-08  0.10566000000E+00  0.10566000000E+00 0.  1.
     999900   -1    0    0    0    0 -0.00000000000E+00 -0.00000000000E+00 -0.74505805969E-08  0.93827000000E+00  0.93827000000E+00 0. -1.
     999902    2    1    2    0    0 -0.45254138096E-02 -0.20582213727E-01 -0.10012049203E-01  0.10205987330E+01  0.10203320174E+01 0.  0.
     999903    2    3    3    0    0 -0.53364789261E-01  0.24731011045E-01  0.11359456867E+00  0.12946621257E+00  0.19958720540E-01 0.  0.
         14    1    1    2    0    0  0.45254138096E-02  0.20582213727E-01  0.10012049203E-01  0.23331267031E-01  0.00000000000E+00 0.  1.
     999901    1    3    3    0    0  0.48839375452E-01 -0.45313224772E-01 -0.12360661787E+00  0.89113252040E+00  0.88000000000E+00 0. -1.
        -11    1    4    4    0    0 -0.22077057330E-01  0.13371560807E-01  0.70040696669E-01  0.74646871399E-01  0.51100000000E-03 0. -1.
         11    1    4    4    0    0 -0.31287731931E-01  0.11359450238E-01  0.43553872000E-01  0.54819341170E-01  0.51100000000E-03 0.  1.
</event>
<event>
 8    1  0.1166736E+005  0.1043930E+01  0.7957747E-01            NaN
         13   -1    0    0    0    0  0.00000000000E+00  0.00000000000E+00  0.74505805969E-08  0.10566000000E+00  0.10566000000E+00 0.  1.
     999900   -1    0    0    0    0 -0.00000000000E+00 -0.00000000000E+00 -0.74505805969E-08  0.93827000000E+00  0.93827000000E+00 0.  1.
     999902    2    1    2    0    0 -0.14321065503E-01  0.77507223536E-02 -0.16238560122E-01  0.10209330991E+01  0.10206740594E+01 0.  0.
     999903    2    3    3    0    0  0.74610297397E-01  0.59733629926E-01  0.84659814243E-01  0.12919799726E+00  0.19749312038E-01 0.  0.
         14    1    1    2    0    0  0.14321065503E-01 -0.77507223536E-02  0.16238560122E-01  0.22996900856E-01  0.00000000000E+00 0.  1.
     999901    1    3    3    0    0 -0.88931362900E-01 -0.51982907572E-01 -0.10089837436E+00  0.89173510189E+00  0.88000000000E+00 0.  1.
        -11    1    4    4    0    0  0.63523115229E-01  0.40730219116E-01  0.68239148354E-01  0.10173976316E+00  0.51100000000E-03 0.  1.
         11    1    4    4    0    0  0.11087182168E-01  0.19003410809E-01  0.16420665888E-01  0.27458234103E-01  0.51100000000E-03 0. -1.
</event>
<event>
 8    1  0.1166736E+005  0.1043930E+01  0.7957747E-01            NaN
         13   -1    0    0    0    0  0.00000000000E+00  0.00000000000E+00  0.74505805969E-08  0.10566000000E+00  0.10566000000E+00 0.  1.
     999900   -1    0    0    0    0 -0.00000000000E+00 -0.00000000000E+00 -0.74505805969E-08  0.93827000000E+00  0.93827000000E+00 0. -1.
     999902    2    1    2    0    0  0.13948218871E-01  0.18398804465E-01  0.83300727075E-02  0.10193849613E+01  0.10190894172E+01 0.  0.
     999903    2    3    3    0    0  0.15352078842E-01  0.90294388718E-02 -0.12632409269E+00  0.12909203189E+00  0.19742320315E-01 0.  0.
         14    1    1    2    0    0 -0.13948218871E-01 -0.18398804465E-01 -0.83300727075E-02  0.24545038739E-01  0.00000000000E+00 0.  1.
     999901    1    3    3    0    0 -0.14038599713E-02  0.93693655929E-02  0.13465416540E+00  0.89029292937E+00  0.88000000000E+00 0.  1.
        -11    1    4    4    0    0  0.52451753486E-02  0.13531414010E-01 -0.53726133177E-01  0.55654016357E-01  0.51100000000E-03 0. -1.
         11    1    4    4    0    0  0.10106903493E-01 -0.45019751379E-02 -0.72597959513E-01  0.73438015529E-01  0.51100000000E-03 0.  1.
</event>
<event>
 8    1  0.1166736E+005  0.1043930E+01  0.7957747E-01            NaN
         13   -1    0    0    0    0  0.00000000000E+00  0.00000000000E+00  0.74505805969E-08  0.10566000000E+00  0.10566000000E+00 0.  1.
     999900   -1    0    0    0    0 -0.00000000000E+00 -0.00000000000E+00 -0.74505805969E-08  0.93827000000E+00  0.93827000000E+00 0. -1.
     999902    2    1    2    0    0  0.11961212198E-01  0.76456105198E-02  0.20173098176E-01  0.10192626157E+01  0.10189640818E+01 0.  0.
     999903    2    3    3    0    0 -0.19705585679E-01  0.14423981674E-01  0.12865547536E+00  0.13201002566E+00  0.16674956640E-01 0.  0.
         14    1    1    2    0    0 -0.11961212198E-01 -0.76456105198E-02 -0.20173098176E-01  0.24667384286E-01  0.00000000000E+00 0. -1.
     999901    1    3    3    0    0  0.31666797878E-01 -0.67783711547E-02 -0.10848237719E+00  0.88725259006E+00  0.88000000000E+00 0. -1.
        -11    1    4    4    0    0 -0.13651285592E-01  0.44637570872E-02  0.10065882390E+00  0.10167960796E+00  0.51100000000E-03 0.  1.
         11    1    4    4    0    0 -0.60543000875E-02  0.99602245873E-02  0.27996651464E-01  0.30330417695E-01  0.51100000000E-03 0. -1.
</event>
<event>
 8    1  0.1166736E+005  0.1043930E+01  0.7957747E-01            NaN
         13   -1    0    0    0    0  0.00000000000E+00  0.00000000000E+00  0.74505805969E-08  0.10566000000E+00  0.10566000000E+00 0.  1.
     999900   -1    0    0    0    0 -0.00000000000E+00 -0.00000000000E+00 -0.74505805969E-08  0.93827000000E+00  0.93827000000E+00 0.  1.
     999902    2    1    2    0    0 -0.74138532868E-02 -0.24186940656E-01 -0.73826403677E-03  0.10186215359E+01  0.10183070829E+01 0.  0.
     999903    2    3    3    0    0 -0.83515476707E-01  0.84389333487E-01  0.42434264255E-01  0.12764222553E+00  0.19886590946E-01 0.  0.
         14    1    1    2    0    0  0.74138532868E-02  0.24186940656E-01  0.73826403677E-03  0.25308464051E-01  0.00000000000E+00 0.  1.
     999901    1    3    3    0    0  0.76101623421E-01 -0.10857627414E+00 -0.43172528292E-01  0.89097931042E+00  0.88000000000E+00 0. -1.
        -11    1    4    4    0    0 -0.80134072596E-02  0.16338658215E-02  0.46294320444E-02  0.94115341727E-02  0.51100000000E-03 0. -1.
         11    1    4    4    0    0 -0.75502069448E-01  0.82755467665E-01  0.37804832211E-01  0.11823069136E+00  0.51100000000E-03 0.  1.
</event>
<event>
 8    1  0.1166736E+005  0.1043930E+01  0.7957747E-01            NaN
         13   -1    0    0    0    0  0.00000000000E+00  0.00000000000E+00  0.74505805969E-08  0.10566000000E+00  0.10566000000E+00 0. -1.
     999900   -1    0    0    0    0 -0.00000000000E+00 -0.00000000000E+00 -0.74505805969E-08  0.93827000000E+00  0.93827000000E+00 0.  1.
     999902    2    1    2    0    0 -0.16259078585E-01 -0.16253322287E-01 -0.46381811437E-02  0.10204770504E+01  0.10202075130E+01 0.  0.
     999903    2    3    3    0    0  0.60344799148E-01 -0.35110841649E-01 -0.10859051308E+00  0.13085362025E+00  0.21365963958E-01 0.  0.
         14    1    1    2    0    0  0.16259078585E-01  0.16253322287E-01  0.46381811437E-02  0.23452949625E-01  0.00000000000E+00 0.  1.
     999901    1    3    3    0    0 -0.76603877732E-01  0.18857519362E-01  0.10395233193E+00  0.88962343013E+00  0.88000000000E+00 0. -1.
        -11    1    4    4    0    0  0.18523901303E-01 -0.22156788314E-01 -0.37063084009E-01  0.46989270106E-01  0.51100000000E-03 0. -1.
         11    1    4    4    0    0  0.41820897845E-01 -0.12954053335E-01 -0.71527429067E-01  0.83864350140E-01  0.51100000000E-03 0.  1.
</event>
<event>
 8    1  0.1166736E+005  0.1043930E+01  0.7957747E-01            NaN
         13   -1    0    0    0    0  0.00000000000E+00  0.00000000000E+00  0.74505805969E-08  0.10566000000E+00  0.10566000000E+00 0.  1.
     999900   -1    0    0    0    0 -0.00000000000E+00 -0.00000000000E+00 -0.74505805969E-08  0.93827000000E+00  0.93827000000E+00 0. -1.
     999902    2    1    2    0    0 -0.86285878306E-02 -0.27597446713E-02 -0.21918677093E-01  0.10202129782E+01  0.10199372646E+01 0.  0.
     999903    2    3    3    0    0 -0.24647099732E-02  0.95972188726E-01 -0.88481631727E-01  0.13217209230E+00  0.20584630806E-01 0.  0.
         14    1    1    2    0    0  0.86285878306E-02  0.27597446713E-02  0.21918677093E-01  0.23717021822E-01  0.00000000000E+00 0.  1.
     999901    1    3    3    0    0 -0.61638778573E-02 -0.98731933397E-01  0.66562954634E-01  0.88804088588E+00  0.88000000000E+00 0.  1.
        -11    1    4    4    0    0 -0.24316185599E-02  0.47220923969E-01 -0.57332653043E-01  0.74317041486E-01  0.51100000000E-03 0.  1.
         11    1    4    4    0    0 -0.33091413323E-04  0.48751264757E-01 -0.31148978684E-01  0.57855050813E-01  0.51100000000E-03 0. -1.
</event>
<event>
 8    1  0.1166736E+005  0.1043930E+01  0.7957747E-01            NaN
         13   -1    0    0    0    0  0.00000000000E+00  0.00000000000E+00  0.74505805969E-08  0.10566000000E+00  0.10566000000E+00 0. -1.
     999900   -1    0    0    0    0 -0.00000000000E+00 -0.00000000000E+00 -0.74505805969E-08  0.93827000000E+00  0.93827000000E+00 0.  1.
     999902    2    1    2    0    0 -0.19009308771E-02 -0.94152433471E-03 -0.23431419117E-01  0.10204027518E+01  0.10201314839E+01 0.  0.
     999903    2    3    3    0    0 -0.10554441763E+00 -0.38960181679E-01 -0.64982982272E-01  0.13253230908E+00  0.26163048631E-01 0.  0.
         14    1    1    2    0    0  0.19009308771E-02  0.94152433471E-03  0.23431419117E-01  0.23527248205E-01  0.00000000000E+00 0. -1.
     999901    1    3    3    0    0  0.10364348676E+00  0.38018657344E-01  0.41551563154E-01  0.88787044272E+00  0.88000000000E+00 0.  1.
        -11    1    4    4    0    0 -0.66398206745E-01 -0.35582472420E-01 -0.34797267646E-01  0.82981595304E-01  0.51100000000E-03 0.  1.
         11    1    4    4    0    0 -0.39146210889E-01 -0.33777092582E-02 -0.30185714625E-01  0.49550713771E-01  0.51100000000E-03 0. -1.
</event>
<event>
 8    1  0.1166736E+005  0.1043930E+01  0.7957747E-01            NaN
         13   -1    0    0    0    0  0.00000000000E+00  0.00000000000E+00  0.74505805969E-08  0.10566000000E+00  0.10566000000E+00 0.  1.
     999900   -1    0    0    0    0 -0.00000000000E+00 -0.00000000000E+00 -0.74505805969E-08  0.93827000000E+00  0.93827000000E+00 0.  1.
     999902    2    1    2    0    0 -0.57849194622E-02 -0.20556412312E-02 -0.22468094196E-01  0.10206382373E+01  0.10203724345E+01 0.  0.
     999903    2    3    3    0    0  0.12613449989E+00 -0.25026044332E-01  0.36194727883E-02  0.13012662378E+00  0.19586287914E-01 0.  0.
         14    1    1    2    0    0  0.57849194622E-02  0.20556412312E-02  0.22468094196E-01  0.23291762725E-01  0.00000000000E+00 0.  1.
     999901    1    3    3    0    0 -0.13191941936E+00  0.22970403101E-01 -0.26087566984E-01  0.89051161350E+00  0.88000000000E+00 0. -1.
        -11    1    4    4    0    0  0.51799501930E-01 -0.18053479389E-01 -0.44009018475E-02  0.55034040160E-01  0.51100000000E-03 0. -1.
         11    1    4    4    0    0  0.74334997964E-01 -0.69725649431E-02  0.80203746358E-02  0.75092583618E-01  0.51100000000E-03 0.  1.
</event>
<event>
 8    1  0.1166736E+005  0.1043930E+01  0.7957747E-01            NaN
         13   -1    0    0    0    0  0.00000000000E+00  0.00000000000E+00  0.74505805969E-08  0.10566000000E+00  0.10566000000E+00 0. -1.
     999900   -1    0    0    0    0 -0.00000000000E+00 -0.00000000000E+00 -0.74505805969E-08  0.93827000000E+00  0.93827000000E+00 0. -1.
     999902    2    1    2    0    0 -0.71275725543E-02 -0.17239382105E-02 -0.22321716239E-01  0.10204346117E+01  0.10201640866E+01 0.  0.
     999903    2    3    3    0    0  0.70422892389E-01 -0.80702754954E-01 -0.74464604008E-01  0.13196930074E+00  0.19964985817E-01 0.  0.
         14    1    1    2    0    0  0.71275725543E-02  0.17239382105E-02  0.22321716239E-01  0.23495388257E-01  0.00000000000E+00 0. -1.
     999901    1    3    3    0    0 -0.77550464944E-01  0.78978816743E-01  0.52142887768E-01  0.88846531100E+00  0.88000000000E+00 0. -1.
        -11    1    4    4    0    0  0.95416925314E-02 -0.15156891744E-01 -0.21573648408E-01  0.28043870816E-01  0.51100000000E-03 0. -1.
         11    1    4    4    0    0  0.60881199858E-01 -0.65545863210E-01 -0.52890955600E-01  0.10392542993E+00  0.51100000000E-03 0.  1.
</event>
<event>
 8    1  0.1166736E+005  0.1043930E+01  0.7957747E-01            NaN
         13   -1    0    0    0    0  0.00000000000E+00  0.00000000000E+00  0.74505805969E-08  0.10566000000E+00  0.10566000000E+00 0. -1.
     999900   -1    0    0    0    0 -0.00000000000E+00 -0.00000000000E+00 -0.74505805969E-08  0.93827000000E+00  0.93827000000E+00 0. -1.
     999902    2    1    2    0    0 -0.47122677735E-03 -0.78022641332E-02 -0.22278006436E-01  0.10203205326E+01  0.10200473432E+01 0.  0.
     999903    2    3    3    0    0 -0.93920276221E-01 -0.79867413856E-01  0.37506446728E-01  0.13043273546E+00  0.20152986204E-01 0.  0.
         14    1    1    2    0    0  0.47122677735E-03  0.78022641332E-02  0.22278006436E-01  0.23609467403E-01  0.00000000000E+00 0. -1.
     999901    1    3    3    0    0  0.93449049444E-01  0.72065149723E-01 -0.59784453164E-01  0.88988779713E+00  0.88000000000E+00 0. -1.
        -11    1    4    4    0    0 -0.64411653240E-01 -0.46923139778E-01  0.16134812948E-01  0.81309503931E-01  0.51100000000E-03 0. -1.
         11    1    4    4    0    0 -0.29508622981E-01 -0.32944274078E-01  0.21371633780E-01  0.49123231533E-01  0.51100000000E-03 0.  1.
</event>
<event>
 8    1  0.1166736E+005  0.1043930E+01  0.7957747E-01            NaN
         13   -1    0    0    0    0  0.00000000000E+00  0.00000000000E+00  0.74505805969E-08  0.10566000000E+00  0.10566000000E+00 0.  1.
     999900   -1    0    0    0    0 -0.00000000000E+00 -0.00000000000E+00 -0.74505805969E-08  0.93827000000E+00  0.93827000000E+00 0.  1.
     999902    2    1    2    0    0  0.47232630489E-02 -0.29317435362E-02 -0.22594578869E-01  0.10206615809E+01  0.10203963168E+01 0.  0.
     999903    2    3    3    0    0 -0.93723350574E-01 -0.49789286521E-01 -0.77291212476E-01  0.13224777707E+00  0.15890359339E-01 0.  0.
         14    1    1    2    0    0 -0.47232630489E-02  0.29317435362E-02  0.22594578869E-01  0.23268419118E-01  0.00000000000E+00 0.  1.
     999901    1    3    3    0    0  0.98446613623E-01  0.46857542984E-01  0.54696633607E-01  0.88841380381E+00  0.88000000000E+00 0. -1.
        -11    1    4    4    0    0 -0.57437200113E-01 -0.22166926998E-01 -0.41098758029E-01  0.74025493189E-01  0.51100000000E-03 0.  1.
         11    1    4    4    0    0 -0.36286150461E-01 -0.27622359522E-01 -0.36192454447E-01  0.58222283885E-01  0.51100000000E-03 0. -1.
</event>
<event>
 8    1  0.1166736E+005  0.1043930E+01  0.7957747E-01            NaN
         13   -1    0    0    0    0  0.00000000000E+00  0.00000000000E+00  0.74505805969E-08  0.10566000000E+00  0.10566000000E+00 0. -1.
     999900   -1    0    0    0    0 -0.00000000000E+00 -0.00000000000E+00 -0.74505805969E-08  0.93827000000E+00  0.93827000000E+00 0.  1.
     999902    2    1    2    0    0 -0.91371092108E-02  0.20113290834E-01 -0.57592049337E-02  0.10211002021E+01  0.10208449554E+01 0.  0.
     999903    2    3    3    0    0  0.93785050303E-02 -0.12440458953E+00 -0.25417131033E-01  0.12890365433E+00  0.20141084781E-01 0.  0.
         14    1    1    2    0    0  0.91371092108E-02 -0.20113290834E-01  0.57592049337E-02  0.22829797949E-01  0.00000000000E+00 0. -1.
     999901    1    3    3    0    0 -0.18515614241E-01  0.14451788036E+00  0.19657926099E-01  0.89219654773E+00  0.88000000000E+00 0. -1.
        -11    1    4    4    0    0  0.86586300781E-02 -0.97165214634E-01 -0.28100420999E-01  0.10151820325E+00  0.51100000000E-03 0. -1.
         11    1    4    4    0    0  0.71987495228E-03 -0.27239374894E-01  0.26832899660E-02  0.27385451076E-01  0.51100000000E-03 0.  1.
</event>
<event>
 8    1  0.1166736E+005  0.1043930E+01  0.7957747E-01            NaN
         13   -1    0    0    0    0  0.00000000000E+00  0.00000000000E+00  0.74505805969E-08  0.10566000000E+00  0.10566000000E+00 0. -1.
     999900   -1    0    0    0    0 -0.00000000000E+00 -0.00000000000E+00 -0.74505805969E-08  0.93827000000E+00  0.93827000000E+00 0. -1.
     999902    2    1    2    0    0 -0.18981195218E-01  0.12092050133E-01  0.69038882931E-02  0.10203892455E+01  0.10201176624E+01 0.  0.
     999903    2    3    3    0    0  0.38576106385E-01 -0.11166850588E+00  0.47645449420E-01  0.12893571728E+00  0.19908770729E-01 0.  0.
         14    1    1    2    0    0  0.18981195218E-01 -0.12092050133E-01 -0.69038882931E-02  0.23540754489E-01  0.00000000000E+00 0.  1.
     999901    1    3    3    0    0 -0.57557301603E-01  0.12376055601E+00 -0.40741561127E-01  0.89145352823E+00  0.88000000000E+00 0.  1.
        -11    1    4    4    0    0  0.28136773119E-01 -0.73362344175E-01  0.41162248956E-01  0.88703457681E-01  0.51100000000E-03 0. -1.
         11    1    4    4    0    0  0.10439333266E-01 -0.38306161700E-01  0.64832004640E-02  0.40232259600E-01  0.51100000000E-03 0.  1.
</event>
<event>
 8    1  0.1166736E+005  0.1043930E+01  0.7957747E-01            NaN
         13   -1    0    0    0    0  0.00000000000E+00  0.00000000000E+00  0.74505805969E-08  0.10566000000E+00  0.10566000000E+00 0.  1.
     999900   -1    0    0    0    0 -0.00000000000E+00 -0.00000000000E+00 -0.74505805969E-08  0.93827000000E+00  0.93827000000E+00 0.  1.
     999902    2    1    2    0    0 -0.40094391436E-02 -0.29376458558E-01  0.24038861755E-02  0.10141838979E+01  0.10137475762E+01 0.  0.
     999903    2    3    3    0    0  0.13902001077E-02  0.18111032237E-01 -0.12171603688E+00  0.12418953099E+00  0.16682440705E-01 0.  0.
         14    1    1    2    0    0  0.40094391436E-02  0.29376458558E-01 -0.24038861755E-02  0.29746102070E-01  0.00000000000E+00 0.  1.
     999901    1    3    3    0    0 -0.53996392513E-02 -0.47487490795E-01  0.12411992306E+00  0.88999436694E+00  0.88000000000E+00 0. -1.
        -11    1    4    4    0    0  0.18708746760E-02  0.21279534060E-01 -0.10281556579E+00  0.10501247751E+00  0.51100000000E-03 0. -1.
         11    1    4    4    0    0 -0.48067456827E-03 -0.31685018230E-02 -0.18900471087E-01  0.19177053480E-01  0.51100000000E-03 0.  1.
</event>
<event>
 8    1  0.1166736E+005  0.1043930E+01  0.7957747E-01            NaN
         13   -1    0    0    0    0  0.00000000000E+00  0.00000000000E+00  0.74505805969E-08  0.10566000000E+00  0.10566000000E+00 0. -1.
     999900   -1    0    0    0    0 -0.00000000000E+00 -0.00000000000E+00 -0.74505805969E-08  0.93827000000E+00  0.93827000000E+00 0. -1.
     999902    2    1    2    0    0 -0.36691942158E-02 -0.81299729083E-02  0.23530581976E-01  0.10187655860E+01  0.10184547469E+01 0.  0.
     999903    2    3    3    0    0  0.44036051681E-01  0.24626659184E-01  0.11992230589E+00  0.13161275140E+00  0.19872359968E-01 0.  0.
         14    1    1    2    0    0  0.36691942158E-02  0.81299729083E-02 -0.23530581976E-01  0.25164414037E-01  0.00000000000E+00 0.  1.
     999901    1    3    3    0    0 -0.47705245897E-01 -0.32756632092E-01 -0.96391723916E-01  0.88715283456E+00  0.88000000000E+00 0. -1.
        -11    1    4    4    0    0  0.26524940406E-01  0.89064725491E-02  0.85085971008E-01  0.89569979905E-01  0.51100000000E-03 0. -1.
         11    1    4    4    0    0  0.17511111275E-01  0.15720186635E-01  0.34836334884E-01  0.42042771496E-01  0.51100000000E-03 0.  1.
</event>
<event>
 8    1  0.1166736E+005  0.1043930E+01  0.7957747E-01            NaN
         13   -1    0    0    0    0  0.00000000000E+00  0.00000000000E+00  0.74505805969E-08  0.10566000000E+00  0.10566000000E+00 0.  1.
     999900   -1    0    0    0    0 -0.00000000000E+00 -0.00000000000E+00 -0.74505805969E-08  0.93827000000E+00  0.93827000000E+00 0. -1.
     999902    2    1    2    0    0 -0.18804454236E-02  0.66087520604E-02 -0.23357586147E-01  0.10195827515E+01  0.10192920085E+01 0.  0.
     999903    2    3    3    0    0 -0.74517695246E-01 -0.71139524448E-01  0.73372929895E-01  0.12791142344E+00  0.19079480091E-01 0.  0.
         14    1    1    2    0    0  0.18804454236E-02 -0.66087520604E-02  0.23357586147E-01  0.24347248498E-01  0.00000000000E+00 0.  1.
     999901    1    3    3    0    0  0.72637249822E-01  0.77748276508E-01 -0.96730516043E-01  0.89167132807E+00  0.88000000000E+00 0. -1.
        -11    1    4    4    0    0 -0.42438409732E-01 -0.41610357778E-01  0.53593231582E-01  0.80030844600E-01  0.51100000000E-03 0. -1.
         11    1    4    4    0    0 -0.32079285514E-01 -0.29529166670E-01  0.19779698314E-01  0.47880578836E-01  0.51100000000E-03 0.  1.
</event>
<event>
 8    1  0.1166736E+005  0.1043930E+01  0.7957747E-01            NaN
         13   -1    0    0    0    0  0.00000000000E+00  0.00000000000E+00  0.74505805969E-08  0.10566000000E+00  0.10566000000E+00 0.  1.
     999900   -1    0    0    0    0 -0.00000000000E+00 -0.00000000000E+00 -0.74505805969E-08  0.93827000000E+00  0.93827000000E+00 0. -1.
     999902    2    1    2    0    0  0.18945766597E-01 -0.12805298174E-01 -0.10405051492E-02  0.10210389453E+01  0.10207823115E+01 0.  0.
     999903    2    3    3    0    0 -0.88937242430E-01 -0.30256326704E-01  0.87395178406E-01  0.12988006378E+00  0.20140391283E-01 0.  0.
         14    1    1    2    0    0 -0.18945766597E-01  0.12805298174E-01  0.10405051492E-02  0.22891054678E-01  0.00000000000E+00 0.  1.
     999901    1    3    3    0    0  0.10788300903E+00  0.17451028530E-01 -0.88435683556E-01  0.89115888155E+00  0.88000000000E+00 0. -1.
        -11    1    4    4    0    0 -0.47388511755E-01 -0.13963227087E-01  0.59117338806E-01  0.77043907128E-01  0.51100000000E-03 0. -1.
         11    1    4    4    0    0 -0.41548730674E-01 -0.16293099618E-01  0.28277839600E-01  0.52836156647E-01  0.51100000000E-03 0.  1.
</event>
<event>
 8    1  0.1166736E+005  0.1043930E+01  0.7957747E-01            NaN
         13   -1    0    0    0    0  0.00000000000E+00  0.00000000000E+00  0.74505805969E-08  0.10566000000E+00  0.10566000000E+00 0. -1.
     999900   -1    0    0    0    0 -0.00000000000E+00 -0.00000000000E+00 -0.74505805969E-08  0.93827000000E+00  0.93827000000E+00 0. -1.
     999902    2    1    2    0    0 -0.22270483039E-01  0.52507857161E-02 -0.33505957418E-02  0.10208048696E+01  0.10205428997E+01 0.  0.
     999903    2    3    3    0    0 -0.71308667442E-01 -0.48680542679E-01 -0.98696324490E-01  0.13265840659E+00  0.20064074469E-01 0.  0.
         14    1    1    2    0    0  0.22270483039E-01 -0.52507857161E-02  0.33505957418E-02  0.23125130427E-01  0.00000000000E+00 0. -1.
     999901    1    3    3    0    0  0.49038184403E-01  0.53931328395E-01  0.95345728748E-01  0.88814646298E+00  0.88000000000E+00 0.  1.
        -11    1    4    4    0    0 -0.36362191238E-01 -0.29849997589E-01 -0.66940392274E-01  0.81819976451E-01  0.51100000000E-03 0.  1.
         11    1    4    4    0    0 -0.34946476204E-01 -0.18830545090E-01 -0.31755932217E-01  0.50838430143E-01  0.51100000000E-03 0. -1.
</event>
<event>
 8    1  0.1166736E+005  0.1043930E+01  0.7957747E-01            NaN
         13   -1    0    0    0    0  0.00000000000E+00  0.00000000000E+00  0.74505805969E-08  0.10566000000E+00  0.10566000000E+00 0. -1.
     999900   -1    0    0    0    0 -0.00000000000E+00 -0.00000000000E+00 -0.74505805969E-08  0.93827000000E+00  0.93827000000E+00 0.  1.
     999902    2    1    2    0    0  0.34149349724E-02 -0.11125137913E-01  0.21860397999E-01  0.10191649546E+01  0.10188640229E+01 0.  0.
     999903    2    3    3    0    0 -0.21547727484E-01  0.28309967180E-01 -0.11999099434E+00  0.12658438144E+00  0.18973879417E-01 0.  0.
         14    1    1    2    0    0 -0.34149349724E-02  0.11125137913E-01 -0.21860397999E-01  0.24765045429E-01  0.00000000000E+00 0.  1.
     999901    1    3    3    0    0  0.24962662456E-01 -0.39435105093E-01  0.14185139234E+00  0.89258057314E+00  0.88000000000E+00 0. -1.
        -11    1    4    4    0    0 -0.17746722946E-01  0.15985617933E-01 -0.50013905553E-01  0.55426870972E-01  0.51100000000E-03 0. -1.
         11    1    4    4    0    0 -0.38010045380E-02  0.12324349246E-01 -0.69977088784E-01  0.71157510464E-01  0.51100000000E-03 0.  1.
</event>
<event>
 8    1  0.1166736E+005  0.1043930E+01  0.7957747E-01            NaN
         13   -1    0    0    0    0  0.00000000000E+00  0.00000000000E+00  0.74505805969E-08  0.10566000000E+00  0.10566000000E+00 0.  1.
     999900   -1    0    0    0    0 -0.00000000000E+00 -0.00000000000E+00 -0.74505805969E-08  0.93827000000E+00  0.93827000000E+00 0. -1.
     999902    2    1    2    0    0 -0.16308856249E-01  0.10598879023E-01 -0.14114677145E-01  0.10198979560E+01  0.10196147809E+01 0.  0.
     999903    2    3    3    0    0 -0.93581344118E-01 -0.89159467556E-01 -0.20388697198E-02  0.13081495074E+00  0.20037857292E-01 0.  0.
         14    1    1    2    0    0  0.16308856249E-01 -0.10598879023E-01  0.14114677145E-01  0.24032044016E-01  0.00000000000E+00 0.  1.
     999901    1    3    3    0    0  0.77272487870E-01  0.99758346578E-01 -0.12075807425E-01  0.88908300525E+00  0.88000000000E+00 0.  1.
        -11    1    4    4    0    0 -0.46155496234E-01 -0.44877272537E-01 -0.11001170794E-01  0.65311456138E-01  0.51100000000E-03 0.  1.
         11    1    4    4    0    0 -0.47425847884E-01 -0.44282195018E-01  0.89623010744E-02  0.65503494599E-01  0.51100000000E-03 0. -1.
</event>
<event>
 8    1  0.1166736E+005  0.1043930E+01  0.7957747E-01            NaN
         13   -1    0    0    0    0  0.00000000000E+00  0.00000000000E+00  0.74505805969E-08  0.10566000000E+00  0.10566000000E+00 0.  1.
     999900   -1    0    0    0    0 -0.00000000000E+00 -0.00000000000E+00 -0.74505805969E-08  0.93827000000E+00  0.93827000000E+00 0. -1.
     999902    2    1    2    0    0 -0.85306219596E-02 -0.20930323451E-01 -0.10335245867E-02  0.10213043923E+01  0.10210537418E+01 0.  0.
     999903    2    3    3    0    0 -0.55062955215E-01  0.94164554273E-01  0.67808568347E-01  0.12992830855E+00  0.19607934706E-01 0.  0.
         14    1    1    2    0    0  0.85306219596E-02  0.20930323451E-01  0.10335245867E-02  0.22625607701E-01  0.00000000000E+00 0. -1.
     999901    1    3    3    0    0  0.46532333256E-01 -0.11509487772E+00 -0.68842092933E-01  0.89137608375E+00  0.88000000000E+00 0. -1.
        -11    1    4    4    0    0 -0.40180009231E-01  0.49657328822E-01  0.40267850011E-01  0.75511881933E-01  0.51100000000E-03 0.  1.
         11    1    4    4    0    0 -0.14882945984E-01  0.44507225451E-01  0.27540718336E-01  0.54416426619E-01  0.51100000000E-03 0. -1.
</event>
<event>
 8    1  0.1166736E+005  0.1043930E+01  0.7957747E-01            NaN
         13   -1    0    0    0    0  0.00000000000E+00  0.00000000000E+00  0.74505805969E-08  0.10566000000E+00  0.10566000000E+00 0.  1.
     999900   -1    0    0    0    0 -0.00000000000E+00 -0.00000000000E+00 -0.74505805969E-08  0.93827000000E+00  0.93827000000E+00 0. -1.
     999902    2    1    2    0    0  0.11477313937E-02  0.31476237607E-02 -0.25005030870E-01  0.10187015163E+01  0.10183890724E+01 0.  0.
     999903    2    3    3    0    0 -0.40932660211E-01  0.44208874198E-01 -0.11604070350E+00  0.13205373990E+00  0.18515888387E-01 0.  0.
         14    1    1    2    0    0 -0.11477313937E-02 -0.31476237607E-02  0.25005030870E-01  0.25228483734E-01  0.00000000000E+00 0.  1.
     999901    1    3    3    0    0  0.42080391604E-01 -0.41061250437E-01  0.91035672631E-01  0.88664777637E+00  0.88000000000E+00 0.  1.
        -11    1    4    4    0    0 -0.17842755381E-01  0.17202095405E-01 -0.29700092233E-01  0.38686336161E-01  0.51100000000E-03 0.  1.
         11    1    4    4    0    0 -0.23089904830E-01  0.27006778793E-01 -0.86340611268E-01  0.93367403739E-01  0.51100000000E-03 0. -1.
</event>
<event>
 8    1  0.1166736E+005  0.1043930E+01  0.7957747E-01            NaN
         13   -1    0    0    0    0  0.00000000000E+00  0.00000000000E+00  0.74505805969E-08  0.10566000000E+00  0.10566000000E+00 0.  1.
     999900   -1    0    0    0    0 -0.00000000000E+00 -0.00000000000E+00 -0.74505805969E-08  0.93827000000E+00  0.93827000000E+00 0.  1.
     999902    2    1    2    0    0  0.11073507862E-01  0.19474955790E-01  0.87529714180E-02  0.10198777446E+01  0.10195940874E+01 0.  0.
     999903    2    3    3    0    0 -0.49916676219E-02 -0.92842459666E-01  0.87401786311E-01  0.12911462923E+00  0.19669167993E-01 0.  0.
         14    1    1    2    0    0 -0.11073507862E-01 -0.19474955790E-01 -0.87529714180E-02  0.24052255363E-01  0.00000000000E+00 0.  1.
     999901    1    3    3    0    0  0.16065175484E-01  0.11231741546E+00 -0.78648814893E-01  0.89076311540E+00  0.88000000000E+00 0. -1.
        -11    1    4    4    0    0 -0.35935917306E-02 -0.50934638249E-01  0.34578453217E-01  0.61669942622E-01  0.51100000000E-03 0. -1.
         11    1    4    4    0    0 -0.13980758913E-02 -0.41907821417E-01  0.52823333095E-01  0.67444686613E-01  0.51100000000E-03 0.  1.
</event>
<event>
 8    1  0.1166736E+005  0.1043930E+01  0.7957747E-01            NaN
         13   -1    0    0    0    0  0.00000000000E+00  0.00000000000E+00  0.74505805969E-08  0.10566000000E+00  0.10566000000E+00 0. -1.
     999900   -1    0    0    0    0 -0.00000000000E+00 -0.00000000000E+00 -0.74505805969E-08  0.93827000000E+00  0.93827000000E+00 0.  1.
     999902    2    1    2    0    0  0.18000446536E-01  0.13329710005E-01 -0.79122882552E-02  0.10201749679E+01  0.10198983594E+01 0.  0.
     999903    2    3    3    0    0  0.52275314198E-01  0.12037444718E+00  0.50768425035E-02  0.13293088659E+00  0.20545809139E-01 0.  0.
         14    1    1    2    0    0 -0.18000446536E-01 -0.13329710005E-01  0.79122882552E-02  0.23755032093E-01  0.00000000000E+00 0.  1.
     999901    1    3    3    0    0 -0.34274867661E-01 -0.10704473717E+00 -0.12989130759E-01  0.88724408131E+00  0.88000000000E+00 0.  1.
        -11    1    4    4    0    0  0.27977255726E-01  0.49553239217E-01  0.10464568135E-01  0.57862065830E-01  0.51100000000E-03 0. -1.
         11    1    4    4    0    0  0.24298058471E-01  0.70821207959E-01 -0.53877256317E-02  0.75068820763E-01  0.51100000000E-03 0.  1.
</event>
<event>
 8    1  0.1166736E+005  0.1043930E+01  0.7957747E-01            NaN
         13   -1    0    0    0    0  0.00000000000E+00  0.00000000000E+00  0.74505805969E-08  0.10566000000E+00  0.10566000000E+00 0.  1.
     999900   -1    0    0    0    0 -0.00000000000E+00 -0.00000000000E+00 -0.74505805969E-08  0.93827000000E+00  0.93827000000E+00 0. -1.
     999902    2    1    2    0    0  0.20695011133E-01 -0.47080120951E-02 -0.10243815645E-01  0.10203634003E+01  0.10200912136E+01 0.  0.
     999903    2    3    3    0    0 -0.18211502366E-01 -0.12309988422E+00 -0.36167979839E-01  0.13120513851E+00  0.20528645631E-01 0.  0.
         14    1    1    2    0    0 -0.20695011133E-01  0.47080120951E-02  0.10243815645E-01  0.23566599726E-01  0.00000000000E+00 0.  1.
     999901    1    3    3    0    0  0.38906513499E-01  0.11839187213E+00  0.25924164194E-01  0.88915826177E+00  0.88000000000E+00 0.  1.
        -11    1    4    4    0    0 -0.18952886216E-01 -0.58387319088E-01 -0.18592922804E-01  0.64142410507E-01  0.51100000000E-03 0.  1.
         11    1    4    4    0    0  0.74138385013E-03 -0.64712565133E-01 -0.17575057035E-01  0.67062728001E-01  0.51100000000E-03 0. -1.
</event>
<event>
 8    1  0.1166736E+005  0.1043930E+01  0.7957747E-01            NaN
         13   -1    0    0    0    0  0.00000000000E+00  0.00000000000E+00  0.74505805969E-08  0.10566000000E+00  0.10566000000E+00 0. -1.
     999900   -1    0    0    0    0 -0.00000000000E+00 -0.00000000000E+00 -0.74505805969E-08  0.93827000000E+00  0.93827000000E+00 0. -1.
     999902    2    1    2    0    0  0.61068053622E-02  0.24065764709E-01 -0.41671224588E-02  0.10187542376E+01  0.10184431146E+01 0.  0.
     999903    2    3    3    0    0  0.28123980117E-01 -0.11915493042E+00  0.24389258575E-01  0.12644689683E+00  0.20127744136E-01 0.  0.
         14    1    1    2    0    0 -0.61068053622E-02 -0.24065764709E-01  0.41671224588E-02  0.25175762399E-01  0.00000000000E+00 0.  1.
     999901    1    3    3    0    0 -0.22017174755E-01  0.14322069513E+00 -0.28556381034E-01  0.89230734077E+00  0.88000000000E+00 0. -1.
        -11    1    4    4    0    0  0.22812117478E-01 -0.54984963628E-01  0.14817992263E-01  0.61347966100E-01  0.51100000000E-03 0.  1.
         11    1    4    4    0    0  0.53118626392E-02 -0.64169966788E-01  0.95712663124E-02  0.65098930730E-01  0.51100000000E-03 0. -1.
</event>
<event>
 8    1  0.1166736E+005  0.1043930E+01  0.7957747E-01            NaN
         13   -1    0    0    0    0  0.00000000000E+00  0.00000000000E+00  0.74505805969E-08  0.10566000000E+00  0.10566000000E+00 0. -1.
     999900   -1    0    0    0    0 -0.00000000000E+00 -0.00000000000E+00 -0.74505805969E-08  0.93827000000E+00  0.93827000000E+00 0. -1.
     999902    2    1    2    0    0  0.13886562349E-01  0.16814354454E-01 -0.10824984605E-01  0.10195837596E+01  0.10192930410E+01 0.  0.
     999903    2    3    3    0    0  0.61297434299E-01  0.97924984441E-01  0.60650293752E-01  0.13170119953E+00  0.17890494562E-01 0.  0.
         14    1    1    2    0    0 -0.13886562349E-01 -0.16814354454E-01  0.10824984605E-01  0.24346240393E-01  0.00000000000E+00 0.  1.
     999901    1    3    3    0    0 -0.47410871951E-01 -0.81110629986E-01 -0.71475278356E-01  0.88788256008E+00  0.88000000000E+00 0.  1.
        -11    1    4    4    0    0  0.28707722037E-01  0.60444991327E-01  0.29992851266E-01  0.73331865714E-01  0.51100000000E-03 0. -1.
         11    1    4    4    0    0  0.32589712263E-01  0.37479993114E-01  0.30657442486E-01  0.58369333815E-01  0.51100000000E-03 0.  1.
</event>
<event>
 8    1  0.1166736E+005  0.1043930E+01  0.7957747E-01            NaN
         13   -1    0    0    0    0  0.00000000000E+00  0.00000000000E+00  0.74505805969E-08  0.10566000000E+00  0.10566000000E+00 0.  1.
     999900   -1    0    0    0    0 -0.00000000000E+00 -0.00000000000E+00 -0.74505805969E-08  0.93827000000E+00  0.93827000000E+00 0. -1.
     999902    2    1    2    0    0  0.17685393500E-01 -0.17135536335E-01 -0.14852038569E-02  0.10192600673E+01  0.10189614709E+01 0.  0.
     999903    2    3    3    0    0  0.83124816185E-01 -0.55701177853E-01  0.83993902045E-01  0.13186145096E+00  0.17891628997E-01 0.  0.
         14    1    1    2    0    0 -0.17685393500E-01  0.17135536335E-01  0.14852038569E-02  0.24669932696E-01  0.00000000000E+00 0. -1.
     999901    1    3    3    0    0 -0.65439422685E-01  0.38565641518E-01 -0.85479105902E-01  0.88739861635E+00  0.88000000000E+00 0. -1.
        -11    1    4    4    0    0  0.90823160381E-02 -0.13085677768E-01  0.97959433460E-02  0.18706818391E-01  0.51100000000E-03 0. -1.
         11    1    4    4    0    0  0.74042500147E-01 -0.42615500085E-01  0.74197958699E-01  0.11315463257E+00  0.51100000000E-03 0.  1.
</event>
<event>
 8    1  0.1166736E+005  0.1043930E+01  0.7957747E-01            NaN
         13   -1    0    0    0    0  0.00000000000E+00  0.00000000000E+00  0.74505805969E-08  0.10566000000E+00  0.10566000000E+00 0.  1.
     999900   -1    0    0    0    0 -0.00000000000E+00 -0.00000000000E+00 -0.74505805969E-08  0.93827000000E+00  0.93827000000E+00 0. -1.
     999902    2    1    2    0    0  0.93252782587E-02  0.15318409735E-01  0.13801899470E-01  0.10213002205E+01  0.10210494765E+01 0.  0.
     999903    2    3    3    0    0  0.74796564612E-01 -0.54271102225E-02 -0.10517732153E+00  0.13064151989E+00  0.19518149269E-01 0.  0.
         14    1    1    2    0    0 -0.93252782587E-02 -0.15318409735E-01 -0.13801899470E-01  0.22629779504E-01  0.00000000000E+00 0. -1.
     999901    1    3    3    0    0 -0.65471286354E-01  0.20745519958E-01  0.11897922100E+00  0.89065870061E+00  0.88000000000E+00 0.  1.
        -11    1    4    4    0    0  0.14736857317E-01 -0.24152915750E-02 -0.97368806512E-02  0.17834701085E-01  0.51100000000E-03 0. -1.
         11    1    4    4    0    0  0.60059707295E-01 -0.30118186475E-02 -0.95440440882E-01  0.11280681880E+00  0.51100000000E-03 0.  1.
</event>
<event>
 8    1  0.1166736E+005  0.1043930E+01  0.7957747E-01            NaN
         13   -1    0    0    0    0  0.00000000000E+00  0.00000000000E+00  0.74505805969E-08  0.10566000000E+00  0.10566000000E+00 0.  1.
     999900   -1    0    0    0    0 -0.00000000000E+00 -0.00000000000E+00 -0.74505805969E-08  0.93827000000E+00  0.93827000000E+00 0. -1.
     999902    2    1    2    0    0  0.19570213472E-01  0.11599000914E-01  0.42888431861E-02  0.10207799621E+01  0.10205174211E+01 0.  0.
     999903    2    3    3    0    0  0.51232243232E-01 -0.11797184305E+00  0.11546340363E-01  0.13069920231E+00  0.20170895121E-01 0.  0.
         14    1    1    2    0    0 -0.19570213472E-01 -0.11599000914E-01 -0.42888431861E-02  0.23150037871E-01  0.00000000000E+00 0. -1.
     999901    1    3    3    0    0 -0.31662029760E-01  0.12957084396E+00 -0.72574971771E-02  0.89008075982E+00  0.88000000000E+00 0.  1.
        -11    1    4    4    0    0  0.22510250344E-01 -0.70528963874E-01 -0.59343717716E-04  0.74035874807E-01  0.51100000000E-03 0.  1.
         11    1    4    4    0    0  0.28721992889E-01 -0.47442879174E-01  0.11605684081E-01  0.56663327504E-01  0.51100000000E-03 0. -1.
</event>
<event>
 8    1  0.1166736E+005  0.1043930E+01  0.7957747E-01            NaN
         13   -1    0    0    0    0  0.00000000000E+00  0.00000000000E+00  0.74505805969E-08  0.10566000000E+00  0.10566000000E+00 0. -1.
     999900   -1    0    0    0    0 -0.00000000000E+00 -0.00000000000E+00 -0.74505805969E-08  0.93827000000E+00  0.93827000000E+00 0. -1.
     999902    2    1    2    0    0 -0.26495254558E-04 -0.92623752289E-03 -0.23500691201E-01  0.10204110480E+01  0.10201399736E+01 0.  0.
     999903    2    3    3    0    0 -0.73633331222E-01 -0.20586157871E-01 -0.10715991026E+00  0.13316624313E+00  0.20108321170E-01 0.  0.
         14    1    1    2    0    0  0.26495254558E-04  0.92623752289E-03  0.23500691201E-01  0.23518952036E-01  0.00000000000E+00 0. -1.
     999901    1    3    3    0    0  0.73606835967E-01  0.19659920348E-01  0.83659219058E-01  0.88724480483E+00  0.88000000000E+00 0.  1.
        -11    1    4    4    0    0 -0.47680098687E-01 -0.37459787956E-02 -0.59466312916E-01  0.76314662161E-01  0.51100000000E-03 0. -1.
         11    1    4    4    0    0 -0.25953232535E-01 -0.16840179076E-01 -0.47693597343E-01  0.56851580970E-01  0.51100000000E-03 0.  1.
</event>
<event>
 8    1  0.1166736E+005  0.1043930E+01  0.7957747E-01            NaN
         13   -1    0    0    0    0  0.00000000000E+00  0.00000000000E+00  0.74505805969E-08  0.10566000000E+00  0.10566000000E+00 0. -1.
     999900   -1    0    0    0    0 -0.00000000000E+00 -0.00000000000E+00 -0.74505805969E-08  0.93827000000E+00  0.93827000000E+00 0.  1.
     999902    2    1    2    0    0 -0.84361762942E-02 -0.14965009302E-01 -0.16140309374E-01  0.10203581914E+01  0.10200858830E+01 0.  0.
     999903    2    3    3    0    0 -0.11382965618E+00 -0.60847290192E-01  0.19727807841E-01  0.13215805003E+00  0.20420098785E-01 0.  0.
         14    1    1    2    0    0  0.84361762942E-02  0.14965009302E-01  0.16140309374E-01  0.23571808598E-01  0.00000000000E+00 0. -1.
     999901    1    3    3    0    0  0.10539347989E+00  0.45882280890E-01 -0.35868117215E-01  0.88820014137E+00  0.88000000000E+00 0.  1.
        -11    1    4    4    0    0 -0.86953236856E-01 -0.53360245622E-01  0.95997495711E-02  0.10247242324E+00  0.51100000000E-03 0.  1.
         11    1    4    4    0    0 -0.26876419329E-01 -0.74870445702E-02  0.10128058269E-01  0.29685626785E-01  0.51100000000E-03 0. -1.
</event>
<event>
 8    1  0.1166736E+005  0.1043930E+01  0.7957747E-01            NaN
         13   -1    0    0    0    0  0.00000000000E+00  0.00000000000E+00  0.74505805969E-08  0.10566000000E+00  0.10566000000E+00 0.  1.
     999900   -1    0    0    0    0 -0.00000000000E+00 -0.00000000000E+00 -0.74505805969E-08  0.93827000000E+00  0.93827000000E+00 0. -1.
     999902    2    1    2    0    0  0.19516302435E-01 -0.98664474436E-03 -0.11689683788E-01  0.10211592241E+01  0.10209053104E+01 0.  0.
     999903    2    3    3    0    0 -0.72729423331E-01  0.95048214968E-01 -0.47777030110E-01  0.13040995254E+00  0.20009470961E-01 0.  0.
         14    1    1    2    0    0 -0.19516302435E-01  0.98664474436E-03  0.11689683788E-01  0.22770775912E-01  0.00000000000E+00 0.  1.
     999901    1    3    3    0    0  0.92245725766E-01 -0.96034859712E-01  0.36087346322E-01  0.89074927155E+00  0.88000000000E+00 0.  1.
        -11    1    4    4    0    0 -0.25841594165E-01  0.49425763007E-01 -0.18823226957E-01  0.58866535756E-01  0.51100000000E-03 0. -1.
         11    1    4    4    0    0 -0.46887829166E-01  0.45622451961E-01 -0.28953803153E-01  0.71543416782E-01  0.51100000000E-03 0.  1.
</event>
<event>
 8    1  0.1166736E+005  0.1043930E+01  0.7957747E-01            NaN
         13   -1    0    0    0    0  0.00000000000E+00  0.00000000000E+00  0.74505805969E-08  0.10566000000E+00  0.10566000000E+00 0. -1.
     999900   -1    0    0    0    0 -0.00000000000E+00 -0.00000000000E+00 -0.74505805969E-08  0.93827000000E+00  0.93827000000E+00 0.  1.
     999902    2    1    2    0    0  0.11622782963E-01 -0.26246803867E-02 -0.20760599121E-01  0.10199929888E+01  0.10197120754E+01 0.  0.
     999903    2    3    3    0    0  0.38646630793E-01  0.29668474766E-01  0.11689577088E+00  0.12829662092E+00  0.20533417268E-01 0.  0.
         14    1    1    2    0    0 -0.11622782963E-01  0.26246803867E-02  0.20760599121E-01  0.23937011233E-01  0.00000000000E+00 0. -1.
     999901    1    3    3    0    0 -0.27023847830E-01 -0.32293155153E-01 -0.13765637000E+00  0.89169636784E+00  0.88000000000E+00 0.  1.
        -11    1    4    4    0    0  0.30976541573E-01  0.23087225336E-01  0.66626810536E-01  0.77019212569E-01  0.51100000000E-03 0. -1.
         11    1    4    4    0    0  0.76700892202E-02  0.65812494296E-02  0.50268960343E-01  0.51277408355E-01  0.51100000000E-03 0.  1.
</event>
<event>
 8    1  0.1166736E+005  0.1043930E+01  0.7957747E-01            NaN
         13   -1    0    0    0    0  0.00000000000E+00  0.00000000000E+00  0.74505805969E-08  0.10566000000E+00  0.10566000000E+00 0. -1.
     999900   -1    0    0    0    0 -0.00000000000E+00 -0.00000000000E+00 -0.74505805969E-08  0.93827000000E+00  0.93827000000E+00 0.  1.
     999902    2    1    2    0    0 -0.17081547936E-01  0.16301650176E-01  0.29115517224E-02  0.10201392410E+01  0.10198617901E+01 0.  0.
     999903    2    3    3    0    0  0.15222657734E-01  0.12810395546E+00  0.21668809895E-01  0.13227936927E+00  0.19645393813E-01 0.  0.
         14    1    1    2    0    0  0.17081547936E-01 -0.16301650176E-01 -0.29115517224E-02  0.23790758957E-01  0.00000000000E+00 0.  1.
     999901    1    3    3    0    0 -0.32304205670E-01 -0.11180230529E+00 -0.18757258173E-01  0.88785987177E+00  0.88000000000E+00 0.  1.
        -11    1    4    4    0    0 -0.35171444971E-02  0.22118624467E-01  0.79830355583E-02  0.23782216706E-01  0.51100000000E-03 0. -1.
         11    1    4    4    0    0  0.18739802231E-01  0.10598533100E+00  0.13685774337E-01  0.10849715256E+00  0.51100000000E-03 0.  1.
</event>
<event>
 8    1  0.1166736E+005  0.1043930E+01  0.7957747E-01            NaN
         13   -1    0    0    0    0  0.00000000000E+00  0.00000000000E+00  0.74505805969E-08  0.10566000000E+00  0.10566000000E+00 0.  1.
     999900   -1    0    0    0    0 -0.00000000000E+00 -0.00000000000E+00 -0.74505805969E-08  0.93827000000E+00  0.93827000000E+00 0. -1.
     999902    2    1    2    0    0  0.15415861833E-01 -0.13263578973E-01 -0.12316944478E-01  0.10201544149E+01  0.10198773220E+01 0.  0.
     999903    2    3    3    0    0  0.24922568687E-01  0.11566383438E+00  0.46557841558E-01  0.12876286472E+00  0.20322049781E-01 0.  0.
         14    1    1    2    0    0 -0.15415861833E-01  0.13263578973E-01  0.12316944478E-01  0.23775585051E-01  0.00000000000E+00 0.  1.
     999901    1    3    3    0    0 -0.95067068538E-02 -0.12892741335E+00 -0.58874786037E-01  0.89139155023E+00  0.88000000000E+00 0. -1.
        -11    1    4    4    0    0  0.17487949487E-01  0.60498858352E-01  0.34490399370E-01  0.71803823080E-01  0.51100000000E-03 0.  1.
         11    1    4    4    0    0  0.74346192003E-02  0.55164976026E-01  0.12067442188E-01  0.56959041640E-01  0.51100000000E-03 0. -1.
</event>
<event>
 8    1  0.1166736E+005  0.1043930E+01  0.7957747E-01            NaN
         13   -1    0    0    0    0  0.00000000000E+00  0.00000000000E+00  0.74505805969E-08  0.10566000000E+00  0.10566000000E+00 0.  1.
     999900   -1    0    0    0    0 -0.00000000000E+00 -0.00000000000E+00 -0.74505805969E-08  0.93827000000E+00  0.93827000000E+00 0.  1.
     999902    2    1    2    0    0 -0.47712916908E-02  0.11123175321E-01  0.18215800466E-01  0.10220598002E+01  0.10218257824E+01 0.  0.
     999903    2    3    3    0    0  0.13307314648E-01  0.13125027945E+00 -0.38784944864E-02  0.13343979420E+00  0.19682872713E-01 0.  0.
         14    1    1    2    0    0  0.47712916908E-02 -0.11123175321E-01 -0.18215800466E-01  0.21870199822E-01  0.00000000000E+00 0. -1.
     999901    1    3    3    0    0 -0.18078606339E-01 -0.12012710413E+00  0.22094294953E-01  0.88862000598E+00  0.88000000000E+00 0.  1.
        -11    1    4    4    0    0  0.31203976363E-02  0.10022743099E+00  0.17986744154E-02  0.10029342528E+00  0.51100000000E-03 0.  1.
         11    1    4    4    0    0  0.10186917012E-01  0.31022848462E-01 -0.56771689018E-02  0.33146368921E-01  0.51100000000E-03 0. -1.
</event>
<event>
 7    1  0.1166736E+005  0.1043930E+01  0.7957747E-01            NaN
         13   -1    0    0    0    0  0.00000000000E+00  0.00000000000E+00  0.74505805969E-08  0.10566000000E+00  0.10566000000E+00 0.  1.
     999900   -1    0    0    0    0 -0.00000000000E+00 -0.00000000000E+00 -0.74505805969E-08  0.93827000000E+00  0.93827000000E+00 0. -1.
     999903    2    1    2    0    0 -0.22028847466E-03  0.18774894550E-01  0.67725274457E-01  0.73998603856E-01  0.23163233368E-01 0.  0.
         14    1    1    2    0    0 -0.68715374284E-01 -0.98910962466E-02  0.40831240328E-01  0.80540838304E-01  0.00000000000E+00 0. -1.
     999901    1    1    2    0    0  0.68935662759E-01 -0.88837983032E-02 -0.10855651479E+00  0.88939055784E+00  0.88000000000E+00 0. -1.
        -11    1    3    3    0    0 -0.75035289172E-02  0.67746952386E-03  0.73106221321E-02  0.10510386678E-01  0.51100000000E-03 0. -1.
         11    1    3    3    0    0  0.72832404426E-02  0.18097425026E-01  0.60414652325E-01  0.63488217178E-01  0.51100000000E-03 0.  1.
</event>
<event>
 8    1  0.1166736E+005  0.1043930E+01  0.7957747E-01            NaN
         13   -1    0    0    0    0  0.00000000000E+00  0.00000000000E+00  0.74505805969E-08  0.10566000000E+00  0.10566000000E+00 0.  1.
     999900   -1    0    0    0    0 -0.00000000000E+00 -0.00000000000E+00 -0.74505805969E-08  0.93827000000E+00  0.93827000000E+00 0. -1.
     999902    2    1    2    0    0  0.25966884208E-02  0.23022053247E-01  0.21600502378E-02  0.10206614903E+01  0.10203962241E+01 0.  0.
     999903    2    3    3    0    0  0.11313309897E+00  0.46544290342E-01  0.46186450932E-01  0.13234290013E+00  0.20395732825E-01 0.  0.
         14    1    1    2    0    0 -0.25966884208E-02 -0.23022053247E-01 -0.21600502378E-02  0.23268509696E-01  0.00000000000E+00 0.  1.
     999901    1    3    3    0    0 -0.11053641055E+00 -0.23522237095E-01 -0.44026400694E-01  0.88831859018E+00  0.88000000000E+00 0.  1.
        -11    1    4    4    0    0  0.47945445375E-01  0.90715967612E-02  0.16738199546E-01  0.51589611794E-01  0.51100000000E-03 0.  1.
         11    1    4    4    0    0  0.65187653599E-01  0.37472693581E-01  0.29448251385E-01  0.80753288333E-01  0.51100000000E-03 0. -1.
</event>
<event>
 8    1  0.1166736E+005  0.1043930E+01  0.7957747E-01            NaN
         13   -1    0    0    0    0  0.00000000000E+00  0.00000000000E+00  0.74505805969E-08  0.10566000000E+00  0.10566000000E+00 0. -1.
     999900   -1    0    0    0    0 -0.00000000000E+00 -0.00000000000E+00 -0.74505805969E-08  0.93827000000E+00  0.93827000000E+00 0. -1.
     999902    2    1    2    0    0  0.17319156185E-01  0.14041432997E-01 -0.88281442109E-02  0.10199497760E+01  0.10196678354E+01 0.  0.
     999903    2    3    3    0    0  0.77365374367E-01  0.49312602669E-01  0.92075818360E-01  0.13145035938E+00  0.19598640781E-01 0.  0.
         14    1    1    2    0    0 -0.17319156185E-01 -0.14041432997E-01  0.88281442109E-02  0.23980223973E-01  0.00000000000E+00 0.  1.
     999901    1    3    3    0    0 -0.60046218182E-01 -0.35271169672E-01 -0.10090396257E+00  0.88849941665E+00  0.88000000000E+00 0. -1.
        -11    1    4    4    0    0  0.21155988259E-01  0.38332769948E-02  0.21522649712E-01  0.30426229201E-01  0.51100000000E-03 0.  1.
         11    1    4    4    0    0  0.56209386107E-01  0.45479325674E-01  0.70553168648E-01  0.10102413017E+00  0.51100000000E-03 0. -1.
</event>
<event>
 8    1  0.1166736E+005  0.1043930E+01  0.7957747E-01            NaN
         13   -1    0    0    0    0  0.00000000000E+00  0.00000000000E+00  0.74505805969E-08  0.10566000000E+00  0.10566000000E+00 0.  1.
     999900   -1    0    0    0    0 -0.00000000000E+00 -0.00000000000E+00 -0.74505805969E-08  0.93827000000E+00  0.93827000000E+00 0. -1.
     999902    2    1    2    0    0  0.16070149271E-01 -0.15491234555E-01 -0.55451450027E-02  0.10209305070E+01  0.10206714082E+01 0.  0.
     999903    2    3    3    0    0  0.50181261601E-01  0.11370304030E+00 -0.33599768016E-01  0.13040156837E+00  0.20714348528E-01 0.  0.
         14    1    1    2    0    0 -0.16070149271E-01  0.15491234555E-01  0.55451450027E-02  0.22999493010E-01  0.00000000000E+00 0. -1.
     999901    1    3    3    0    0 -0.34111112330E-01 -0.12919427485E+00  0.28054623014E-01  0.89052893862E+00  0.88000000000E+00 0.  1.
        -11    1    4    4    0    0  0.39543263332E-01  0.81639912190E-01 -0.15354570875E-01  0.92004178737E-01  0.51100000000E-03 0.  1.
         11    1    4    4    0    0  0.10637998269E-01  0.32063128108E-01 -0.18245197142E-01  0.38397389638E-01  0.51100000000E-03 0. -1.
</event>
<event>
 8    1  0.1166736E+005  0.1043930E+01  0.7957747E-01            NaN
         13   -1    0    0    0    0  0.00000000000E+00  0.00000000000E+00  0.74505805969E-08  0.10566000000E+00  0.10566000000E+00 0. -1.
     999900   -1    0    0    0    0 -0.00000000000E+00 -0.00000000000E+00 -0.74505805969E-08  0.93827000000E+00  0.93827000000E+00 0. -1.
     999902    2    1    2    0    0  0.12569013435E-01  0.73809358875E-02 -0.18774029802E-01  0.10201619015E+01  0.10198849850E+01 0.  0.
     999903    2    3    3    0    0  0.90485894982E-01  0.60208596990E-01  0.69793244434E-01  0.13072052381E+00  0.20099403827E-01 0.  0.
         14    1    1    2    0    0 -0.12569013435E-01 -0.73809358875E-02  0.18774029802E-01  0.23768098542E-01  0.00000000000E+00 0. -1.
     999901    1    3    3    0    0 -0.77916881546E-01 -0.52827661103E-01 -0.88567274236E-01  0.88944137765E+00  0.88000000000E+00 0.  1.
        -11    1    4    4    0    0  0.71310680793E-01  0.39143656741E-01  0.45076570950E-01  0.93003211922E-01  0.51100000000E-03 0. -1.
         11    1    4    4    0    0  0.19175214189E-01  0.21064940249E-01  0.24716673484E-01  0.37717311887E-01  0.51100000000E-03 0.  1.
</event>
<event>
 8    1  0.1166736E+005  0.1043930E+01  0.7957747E-01            NaN
         13   -1    0    0    0    0  0.00000000000E+00  0.00000000000E+00  0.74505805969E-08  0.10566000000E+00  0.10566000000E+00 0.  1.
     999900   -1    0    0    0    0 -0.00000000000E+00 -0.00000000000E+00 -0.74505805969E-08  0.93827000000E+00  0.93827000000E+00 0.  1.
     999902    2    1    2    0    0  0.65195562979E-02  0.47537015607E-02  0.20228761890E-01  0.10221514532E+01  0.10219194137E+01 0.  0.
     999903    2    3    3    0    0 -0.51962840051E-01  0.10970283572E+00 -0.46460863228E-01  0.13148764596E+00  0.19888195387E-01 0.  0.
         14    1    1    2    0    0 -0.65195562979E-02 -0.47537015607E-02 -0.20228761890E-01  0.21778546794E-01  0.00000000000E+00 0. -1.
     999901    1    3    3    0    0  0.58482396349E-01 -0.10494913416E+00  0.66689625118E-01  0.89066380725E+00  0.88000000000E+00 0.  1.
        -11    1    4    4    0    0 -0.21509316240E-01  0.41730805482E-01 -0.78894319283E-02  0.47608980964E-01  0.51100000000E-03 0.  1.
         11    1    4    4    0    0 -0.30453523811E-01  0.67972030241E-01 -0.38571431299E-01  0.83878664993E-01  0.51100000000E-03 0. -1.
</event>
<event>
 8    1  0.1166736E+005  0.1043930E+01  0.7957747E-01            NaN
         13   -1    0    0    0    0  0.00000000000E+00  0.00000000000E+00  0.74505805969E-08  0.10566000000E+00  0.10566000000E+00 0.  1.
     999900   -1    0    0    0    0 -0.00000000000E+00 -0.00000000000E+00 -0.74505805969E-08  0.93827000000E+00  0.93827000000E+00 0. -1.
     999902    2    1    2    0    0  0.96703012017E-02  0.91820197219E-02  0.19194165543E-01  0.10205582178E+01  0.10202905644E+01 0.  0.
     999903    2    3    3    0    0 -0.44315389303E-01 -0.93897984404E-01 -0.72183248737E-01  0.12820751665E+00  0.21120149706E-01 0.  0.
         14    1    1    2    0    0 -0.96703012017E-02 -0.91820197219E-02 -0.19194165543E-01  0.23371782183E-01  0.00000000000E+00 0. -1.
     999901    1    3    3    0    0  0.53985690505E-01  0.10308000413E+00  0.91377414280E-01  0.89235070117E+00  0.88000000000E+00 0.  1.
        -11    1    4    4    0    0 -0.28570839175E-01 -0.50082781183E-01 -0.28324751026E-01  0.64242746392E-01  0.51100000000E-03 0.  1.
         11    1    4    4    0    0 -0.15744550128E-01 -0.43815203221E-01 -0.43858497711E-01  0.63964770260E-01  0.51100000000E-03 0. -1.
</event>
<event>
 8    1  0.1166736E+005  0.1043930E+01  0.7957747E-01            NaN
         13   -1    0    0    0    0  0.00000000000E+00  0.00000000000E+00  0.74505805969E-08  0.10566000000E+00  0.10566000000E+00 0.  1.
     999900   -1    0    0    0    0 -0.00000000000E+00 -0.00000000000E+00 -0.74505805969E-08  0.93827000000E+00  0.93827000000E+00 0. -1.
     999902    2    1    2    0    0  0.63145188100E-03  0.18335858293E-01 -0.14653942916E-01  0.10204493596E+01  0.10201791779E+01 0.  0.
     999903    2    3    3    0    0 -0.15714602994E-01 -0.95924705703E-01 -0.85398744583E-01  0.13009690300E+00  0.13555835778E-01 0.  0.
         14    1    1    2    0    0 -0.63145188100E-03 -0.18335858293E-01  0.14653942916E-01  0.23480640404E-01  0.00000000000E+00 0.  1.
     999901    1    3    3    0    0  0.16346054875E-01  0.11426056400E+00  0.70744801668E-01  0.89035245659E+00  0.88000000000E+00 0. -1.
        -11    1    4    4    0    0 -0.83268636459E-02 -0.63516307110E-01 -0.47937044478E-01  0.80011744646E-01  0.51100000000E-03 0.  1.
         11    1    4    4    0    0 -0.73877393476E-02 -0.32408398593E-01 -0.37461700105E-01  0.50085158359E-01  0.51100000000E-03 0. -1.
</event>
<event>
 8    1  0.1166736E+005  0.1043930E+01  0.7957747E-01            NaN
         13   -1    0    0    0    0  0.00000000000E+00  0.00000000000E+00  0.74505805969E-08  0.10566000000E+00  0.10566000000E+00 0.  1.
     999900   -1    0    0    0    0 -0.00000000000E+00 -0.00000000000E+00 -0.74505805969E-08  0.93827000000E+00  0.93827000000E+00 0.  1.
     999902    2    1    2    0    0 -0.21315090296E-01  0.10543745074E-01  0.26476329865E-02  0.10200027437E+01  0.10197220619E+01 0.  0.
     999903    2    3    3    0    0  0.77824158289E-01 -0.17164209341E-01 -0.99386020440E-01  0.12814670834E+00  0.13884815563E-01 0.  0.
         14    1    1    2    0    0  0.21315090296E-01 -0.10543745074E-01 -0.26476329865E-02  0.23927256319E-01  0.00000000000E+00 0. -1.
     999901    1    3    3    0    0 -0.99139248585E-01  0.27707954415E-01  0.10203365343E+00  0.89185603534E+00  0.88000000000E+00 0. -1.
        -11    1    4    4    0    0  0.30790029692E-01 -0.17318757998E-03 -0.34989463065E-01  0.46610938297E-01  0.51100000000E-03 0. -1.
         11    1    4    4    0    0  0.47034128597E-01 -0.16991021761E-01 -0.64396557375E-01  0.81535770040E-01  0.51100000000E-03 0.  1.
</event>
<event>
 8    1  0.1166736E+005  0.1043930E+01  0.7957747E-01            NaN
         13   -1    0    0    0    0  0.00000000000E+00  0.00000000000E+00  0.74505805969E-08  0.10566000000E+00  0.10566000000E+00 0. -1.
     999900   -1    0    0    0    0 -0.00000000000E+00 -0.00000000000E+00 -0.74505805969E-08  0.93827000000E+00  0.93827000000E+00 0. -1.
     999902    2    1    2    0    0  0.16984105629E-01 -0.12451644079E-01  0.10715412622E-01  0.10203011331E+01  0.10200274892E+01 0.  0.
     999903    2    3    3    0    0 -0.62676802522E-02  0.10662138298E+00 -0.68379812126E-01  0.12846309515E+00  0.20483285528E-01 0.  0.
         14    1    1    2    0    0 -0.16984105629E-01  0.12451644079E-01 -0.10715412622E-01  0.23628866921E-01  0.00000000000E+00 0.  1.
     999901    1    3    3    0    0  0.23251785881E-01 -0.11907302705E+00  0.79095224748E-01  0.89183803793E+00  0.88000000000E+00 0.  1.
        -11    1    4    4    0    0  0.59378624367E-03  0.54285798296E-01 -0.23428874501E-01  0.59130988154E-01  0.51100000000E-03 0. -1.
         11    1    4    4    0    0 -0.68614664958E-02  0.52335584679E-01 -0.44950937625E-01  0.69332106996E-01  0.51100000000E-03 0.  1.
</event>
<event>
 8    1  0.1166736E+005  0.1043930E+01  0.7957747E-01            NaN
         13   -1    0    0    0    0  0.00000000000E+00  0.00000000000E+00  0.74505805969E-08  0.10566000000E+00  0.10566000000E+00 0.  1.
     999900   -1    0    0    0    0 -0.00000000000E+00 -0.00000000000E+00 -0.74505805969E-08  0.93827000000E+00  0.93827000000E+00 0. -1.
     999902    2    1    2    0    0 -0.94644099878E-02 -0.22081964157E-01  0.61391755574E-02  0.10191332729E+01  0.10188315613E+01 0.  0.
     999903    2    3    3    0    0  0.11553262296E+00 -0.51540044282E-01  0.20203017826E-01  0.12970096611E+00  0.20248840688E-01 0.  0.
         14    1    1    2    0    0  0.94644099878E-02  0.22081964157E-01 -0.61391755574E-02  0.24796727082E-01  0.00000000000E+00 0. -1.
     999901    1    3    3    0    0 -0.12499703295E+00  0.29458080125E-01 -0.14063842269E-01  0.88943230681E+00  0.88000000000E+00 0. -1.
        -11    1    4    4    0    0  0.14720509581E-01 -0.81109506652E-02 -0.40230974486E-02  0.17289515815E-01  0.51100000000E-03 0. -1.
         11    1    4    4    0    0  0.10081211338E+00 -0.43429093617E-01  0.24226115275E-01  0.11241145030E+00  0.51100000000E-03 0.  1.
</event>
<event>
 8    1  0.1166736E+005  0.1043930E+01  0.7957747E-01            NaN
         13   -1    0    0    0    0  0.00000000000E+00  0.00000000000E+00  0.74505805969E-08  0.10566000000E+00  0.10566000000E+00 0. -1.
     999900   -1    0    0    0    0 -0.00000000000E+00 -0.00000000000E+00 -0.74505805969E-08  0.93827000000E+00  0.93827000000E+00 0. -1.
     999902    2    1    2    0    0  0.82135151319E-02  0.40762795064E-02 -0.12525299350E-01  0.10284070812E+01  0.10282899219E+01 0.  0.
     999903    2    3    3    0    0 -0.11367861877E+00  0.41545511577E-01 -0.62755262451E-01  0.13779791612E+00  0.20029598691E-01 0.  0.
         14    1    1    2    0    0 -0.82135151319E-02 -0.40762795064E-02  0.12525299350E-01  0.15522918838E-01  0.00000000000E+00 0. -1.
     999901    1    3    3    0    0  0.12189213391E+00 -0.37469232071E-01  0.50229963102E-01  0.89060916504E+00  0.88000000000E+00 0.  1.
        -11    1    4    4    0    0 -0.63955145664E-01  0.21009652725E-01 -0.23908007743E-01  0.71438925803E-01  0.51100000000E-03 0.  1.
         11    1    4    4    0    0 -0.49723473110E-01  0.20535858852E-01 -0.38847254708E-01  0.66358990320E-01  0.51100000000E-03 0. -1.
</event>
<event>
 8    1  0.1166736E+005  0.1043930E+01  0.7957747E-01            NaN
         13   -1    0    0    0    0  0.00000000000E+00  0.00000000000E+00  0.74505805969E-08  0.10566000000E+00  0.10566000000E+00 0.  1.
     999900   -1    0    0    0    0 -0.00000000000E+00 -0.00000000000E+00 -0.74505805969E-08  0.93827000000E+00  0.93827000000E+00 0.  1.
     999902    2    1    2    0    0 -0.16878874707E-01  0.15974717635E-01 -0.50786954712E-02  0.10201417432E+01  0.10198643513E+01 0.  0.
     999903    2    3    3    0    0 -0.19963114379E-01 -0.11073988207E-02  0.12694129217E+00  0.13012455887E+00  0.20458663067E-01 0.  0.
         14    1    1    2    0    0  0.16878874707E-01 -0.15974717635E-01  0.50786954712E-02  0.23788256821E-01  0.00000000000E+00 0.  1.
     999901    1    3    3    0    0  0.30842396717E-02  0.17082116456E-01 -0.13201998764E+00  0.89001718431E+00  0.88000000000E+00 0.  1.
        -11    1    4    4    0    0 -0.10097785386E-01 -0.10137892925E-01  0.49258476030E-01  0.51297180473E-01  0.51100000000E-03 0.  1.
         11    1    4    4    0    0 -0.98653289924E-02  0.90304941047E-02  0.77682816139E-01  0.78827378392E-01  0.51100000000E-03 0. -1.
</event>
<event>
 8    1  0.1166736E+005  0.1043930E+01  0.7957747E-01            NaN
         13   -1    0    0    0    0  0.00000000000E+00  0.00000000000E+00  0.74505805969E-08  0.10566000000E+00  0.10566000000E+00 0.  1.
     999900   -1    0    0    0    0 -0.00000000000E+00 -0.00000000000E+00 -0.74505805969E-08  0.93827000000E+00  0.93827000000E+00 0.  1.
     999902    2    1    2    0    0 -0.19007323632E-01  0.13767307296E-01 -0.11963892024E-01  0.10175870348E+01  0.10172459986E+01 0.  0.
     999903    2    3    3    0    0  0.31143364473E-01  0.12192021867E+00 -0.22959079847E-01  0.12948060094E+00  0.20091236925E-01 0.  0.
         14    1    1    2    0    0  0.19007323632E-01 -0.13767307296E-01  0.11963892024E-01  0.26342965175E-01  0.00000000000E+00 0.  1.
     999901    1    3    3    0    0 -0.50150688105E-01 -0.10815291137E+00  0.10995187823E-01  0.88810643389E+00  0.88000000000E+00 0. -1.
        -11    1    4    4    0    0  0.90424179747E-02  0.29017736306E-01 -0.14295472007E-01  0.33591903549E-01  0.51100000000E-03 0.  1.
         11    1    4    4    0    0  0.22100946498E-01  0.92902482362E-01 -0.86636078398E-02  0.95888697389E-01  0.51100000000E-03 0. -1.
</event>
<event>
 8    1  0.1166736E+005  0.1043930E+01  0.7957747E-01            NaN
         13   -1    0    0    0    0  0.00000000000E+00  0.00000000000E+00  0.74505805969E-08  0.10566000000E+00  0.10566000000E+00 0.  1.
     999900   -1    0    0    0    0 -0.00000000000E+00 -0.00000000000E+00 -0.74505805969E-08  0.93827000000E+00  0.93827000000E+00 0. -1.
     999902    2    1    2    0    0 -0.47578123890E-02  0.14593087020E-01  0.18436573318E-01  0.10199403730E+01  0.10196582086E+01 0.  0.
     999903    2    3    3    0    0 -0.63510485036E-01 -0.46798071179E-02  0.11449040945E+00  0.13255676913E+00  0.20193089983E-01 0.  0.
         14    1    1    2    0    0  0.47578123890E-02 -0.14593087020E-01 -0.18436573318E-01  0.23989626992E-01  0.00000000000E+00 0. -1.
     999901    1    3    3    0    0  0.58752672647E-01  0.19272894138E-01 -0.96053836131E-01  0.88738360388E+00  0.88000000000E+00 0.  1.
        -11    1    4    4    0    0 -0.50850699142E-01  0.28368332044E-02  0.77472306935E-01  0.92714943179E-01  0.51100000000E-03 0.  1.
         11    1    4    4    0    0 -0.12659785894E-01 -0.75166403224E-02  0.37018102514E-01  0.39841825954E-01  0.51100000000E-03 0. -1.
</event>
<event>
 8    1  0.1166736E+005  0.1043930E+01  0.7957747E-01            NaN
         13   -1    0    0    0    0  0.00000000000E+00  0.00000000000E+00  0.74505805969E-08  0.10566000000E+00  0.10566000000E+00 0.  1.
     999900   -1    0    0    0    0 -0.00000000000E+00 -0.00000000000E+00 -0.74505805969E-08  0.93827000000E+00  0.93827000000E+00 0. -1.
     999902    2    1    2    0    0  0.33137609755E-02 -0.13446379637E-01 -0.18991027146E-01  0.10204258461E+01  0.10201551167E+01 0.  0.
     999903    2    3    3    0    0  0.44888088608E-01 -0.16282082083E-01  0.11796813446E+00  0.12885740912E+00  0.20191692359E-01 0.  0.
         14    1    1    2    0    0 -0.33137609755E-02  0.13446379637E-01  0.18991027146E-01  0.23504153871E-01  0.00000000000E+00 0.  1.
     999901    1    3    3    0    0 -0.41574327632E-01  0.28357024465E-02 -0.13695916161E+00  0.89156843701E+00  0.88000000000E+00 0. -1.
        -11    1    4    4    0    0  0.28990257053E-01 -0.14501188913E-01  0.54599350862E-01  0.63498580452E-01  0.51100000000E-03 0.  1.
         11    1    4    4    0    0  0.15897831555E-01 -0.17808931701E-02  0.63368783600E-01  0.65358828666E-01  0.51100000000E-03 0. -1.
</event>
<event>
 8    1  0.1166736E+005  0.1043930E+01  0.7957747E-01            NaN
         13   -1    0    0    0    0  0.00000000000E+00  0.00000000000E+00  0.74505805969E-08  0.10566000000E+00  0.10566000000E+00 0. -1.
     999900   -1    0    0    0    0 -0.00000000000E+00 -0.00000000000E+00 -0.74505805969E-08  0.93827000000E+00  0.93827000000E+00 0.  1.
     999902    2    1    2    0    0  0.16217377395E-01 -0.16341068460E-01 -0.34457192445E-02  0.10206511076E+01  0.10203856020E+01 0.  0.
     999903    2    3    3    0    0  0.88796933957E-01  0.93648860970E-01  0.76585955375E-02  0.13076972094E+00  0.19673870681E-01 0.  0.
         14    1    1    2    0    0 -0.16217377395E-01  0.16341068460E-01  0.34457192445E-02  0.23278892351E-01  0.00000000000E+00 0. -1.
     999901    1    3    3    0    0 -0.72579556563E-01 -0.10998992943E+00 -0.11104314782E-01  0.88988138671E+00  0.88000000000E+00 0.  1.
        -11    1    4    4    0    0  0.39243741509E-01  0.53750181937E-01  0.88331528555E-02  0.67137463583E-01  0.51100000000E-03 0. -1.
         11    1    4    4    0    0  0.49553192448E-01  0.39898679033E-01 -0.11745573180E-02  0.63632257356E-01  0.51100000000E-03 0.  1.
</event>
<event>
 8    1  0.1166736E+005  0.1043930E+01  0.7957747E-01            NaN
         13   -1    0    0    0    0  0.00000000000E+00  0.00000000000E+00  0.74505805969E-08  0.10566000000E+00  0.10566000000E+00 0. -1.
     999900   -1    0    0    0    0 -0.00000000000E+00 -0.00000000000E+00 -0.74505805969E-08  0.93827000000E+00  0.93827000000E+00 0. -1.
     999902    2    1    2    0    0 -0.18280949824E-01 -0.14714828038E-01 -0.18496394862E-02  0.10203898119E+01  0.10201182420E+01 0.  0.
     999903    2    3    3    0    0 -0.31123149868E-01 -0.96005516227E-01 -0.83931978080E-01  0.13274652294E+00  0.19782638956E-01 0.  0.
         14    1    1    2    0    0  0.18280949824E-01  0.14714828038E-01  0.18496394862E-02  0.23540188124E-01  0.00000000000E+00 0.  1.
     999901    1    3    3    0    0  0.12842200044E-01  0.81290688189E-01  0.82082338593E-01  0.88764328894E+00  0.88000000000E+00 0.  1.
        -11    1    4    4    0    0 -0.10186967043E-01 -0.99790102977E-02 -0.10447973774E-01  0.17685480515E-01  0.51100000000E-03 0. -1.
         11    1    4    4    0    0 -0.20936182824E-01 -0.86026505929E-01 -0.73484004306E-01  0.11506104242E+00  0.51100000000E-03 0.  1.
</event>
<event>
 8    1  0.1166736E+005  0.1043930E+01  0.7957747E-01            NaN
         13   -1    0    0    0    0  0.00000000000E+00  0.00000000000E+00  0.74505805969E-08  0.10566000000E+00  0.10566000000E+00 0. -1.
     999900   -1    0    0    0    0 -0.00000000000E+00 -0.00000000000E+00 -0.74505805969E-08  0.93827000000E+00  0.93827000000E+00 0.  1.
     999902    2    1    2    0    0 -0.17333123936E-01  0.45447250125E-02 -0.15647834411E-01  0.10201403713E+01  0.10198629471E+01 0.  0.
     999903    2    3    3    0    0 -0.38368666713E-01  0.11863671723E+00  0.35200794980E-01  0.13107059911E+00  0.19838868989E-01 0.  0.
         14    1    1    2    0    0  0.17333123936E-01 -0.45447250125E-02  0.15647834411E-01  0.23789628677E-01  0.00000000000E+00 0. -1.
     999901    1    3    3    0    0  0.21035542777E-01 -0.11409199222E+00 -0.50848629392E-01  0.88906977221E+00  0.88000000000E+00 0. -1.
        -11    1    4    4    0    0 -0.37307635016E-01  0.94936233760E-01  0.23802237832E-01  0.10474519444E+00  0.51100000000E-03 0. -1.
         11    1    4    4    0    0 -0.10610316977E-02  0.23700483474E-01  0.11398557149E-01  0.26325404674E-01  0.51100000000E-03 0.  1.
</event>
<event>
 8    1  0.1166736E+005  0.1043930E+01  0.7957747E-01            NaN
         13   -1    0    0    0    0  0.00000000000E+00  0.00000000000E+00  0.74505805969E-08  0.10566000000E+00  0.10566000000E+00 0. -1.
     999900   -1    0    0    0    0 -0.00000000000E+00 -0.00000000000E+00 -0.74505805969E-08  0.93827000000E+00  0.93827000000E+00 0.  1.
     999902    2    1    2    0    0 -0.15477776638E-01  0.50718638939E-02 -0.17607333038E-01  0.10199445138E+01  0.10196624479E+01 0.  0.
     999903    2    3    3    0    0  0.32825389849E-01  0.74075465397E-01  0.97571418544E-01  0.12845091439E+00  0.20366023156E-01 0.  0.
         14    1    1    2    0    0  0.15477776638E-01 -0.50718638939E-02  0.17607333038E-01  0.23985486230E-01  0.00000000000E+00 0.  1.
     999901    1    3    3    0    0 -0.48303166487E-01 -0.69003601503E-01 -0.11517875158E+00  0.89149359938E+00  0.88000000000E+00 0.  1.
        -11    1    4    4    0    0  0.27051146257E-01  0.36711456477E-01  0.49794350950E-01  0.67522100515E-01  0.51100000000E-03 0.  1.
         11    1    4    4    0    0  0.57742435915E-02  0.37364008920E-01  0.47777067594E-01  0.60928813878E-01  0.51100000000E-03 0. -1.
</event>
<event>
 8    1  0.1166736E+005  0.1043930E+01  0.7957747E-01            NaN
         13   -1    0    0    0    0  0.00000000000E+00  0.00000000000E+00  0.74505805969E-08  0.10566000000E+00  0.10566000000E+00 0.  1.
     999900   -1    0    0    0    0 -0.00000000000E+00 -0.00000000000E+00 -0.74505805969E-08  0.93827000000E+00  0.93827000000E+00 0.  1.
     999902    2    1    2    0    0 -0.27815218291E-02  0.22834281177E-01  0.96678510598E-02  0.10189778737E+01  0.10186723215E+01 0.  0.
     999903    2    3    3    0    0  0.44100065095E-01 -0.33249812342E-01  0.11548029892E+00  0.12963003243E+00  0.20442116007E-01 0.  0.
         14    1    1    2    0    0  0.27815218291E-02 -0.22834281177E-01 -0.96678510598E-02  0.24952126255E-01  0.00000000000E+00 0.  1.
     999901    1    3    3    0    0 -0.46881586924E-01  0.56084093519E-01 -0.10581244786E+00  0.88934784132E+00  0.88000000000E+00 0.  1.
        -11    1    4    4    0    0  0.15497572547E-01 -0.18013422630E-01  0.68888412558E-01  0.72873401563E-01  0.51100000000E-03 0.  1.
         11    1    4    4    0    0  0.28602492549E-01 -0.15236389712E-01  0.46591886357E-01  0.56756630862E-01  0.51100000000E-03 0. -1.
</event>
<event>
 8    1  0.1166736E+005  0.1043930E+01  0.7957747E-01            NaN
         13   -1    0    0    0    0  0.00000000000E+00  0.00000000000E+00  0.74505805969E-08  0.10566000000E+00  0.10566000000E+00 0. -1.
     999900   -1    0    0    0    0 -0.00000000000E+00 -0.00000000000E+00 -0.74505805969E-08  0.93827000000E+00  0.93827000000E+00 0. -1.
     999902    2    1    2    0    0  0.20763484708E-01 -0.48560402649E-02  0.87616159773E-02  0.10208763812E+01  0.10206160475E+01 0.  0.
     999903    2    3    3    0    0  0.11218408388E+00 -0.49200060816E-01  0.50593939520E-01  0.13404265306E+00  0.20044237672E-01 0.  0.
         14    1    1    2    0    0 -0.20763484708E-01  0.48560402649E-02 -0.87616159773E-02  0.23053618779E-01  0.00000000000E+00 0. -1.
     999901    1    3    3    0    0 -0.91420599168E-01  0.44344020551E-01 -0.41832323543E-01  0.88683372816E+00  0.88000000000E+00 0. -1.
        -11    1    4    4    0    0  0.14548965775E-01 -0.11941616629E-01  0.13427260665E-01  0.23126328346E-01  0.51100000000E-03 0.  1.
         11    1    4    4    0    0  0.97635118101E-01 -0.37258444187E-01  0.37166678856E-01  0.11091632471E+00  0.51100000000E-03 0. -1.
</event>
<event>
 8    1  0.1166736E+005  0.1043930E+01  0.7957747E-01            NaN
         13   -1    0    0    0    0  0.00000000000E+00  0.00000000000E+00  0.74505805969E-08  0.10566000000E+00  0.10566000000E+00 0.  1.
     999900   -1    0    0    0    0 -0.00000000000E+00 -0.00000000000E+00 -0.74505805969E-08  0.93827000000E+00  0.93827000000E+00 0.  1.
     999902    2    1    2    0    0 -0.18011108253E-01 -0.13144255874E-01  0.74859561493E-02  0.10204095616E+01  0.10201384526E+01 0.  0.
     999903    2    3    3    0    0  0.31675617859E-01 -0.33687841556E-03  0.12558130184E+00  0.13103938539E+00  0.19929849417E-01 0.  0.
         14    1    1    2    0    0  0.18011108253E-01  0.13144255874E-01 -0.74859561493E-02  0.23520438399E-01  0.00000000000E+00 0. -1.
     999901    1    3    3    0    0 -0.49686726112E-01 -0.12807377458E-01 -0.11809534569E+00  0.88937017622E+00  0.88000000000E+00 0.  1.
        -11    1    4    4    0    0  0.11874235997E-01  0.46691180474E-02  0.80989318926E-01  0.81989810616E-01  0.51100000000E-03 0. -1.
         11    1    4    4    0    0  0.19801381862E-01 -0.50059964629E-02  0.44591982910E-01  0.49049574770E-01  0.51100000000E-03 0.  1.
</event>
<event>
 8    1  0.1166736E+005  0.1043930E+01  0.7957747E-01            NaN
         13   -1    0    0    0    0  0.00000000000E+00  0.00000000000E+00  0.74505805969E-08  0.10566000000E+00  0.10566000000E+00 0. -1.
     999900   -1    0    0    0    0 -0.00000000000E+00 -0.00000000000E+00 -0.74505805969E-08  0.93827000000E+00  0.93827000000E+00 0.  1.
     999902    2    1    2    0    0  0.39871385668E-02  0.21672704224E-01  0.70455837782E-02  0.10207946670E+01  0.10205324632E+01 0.  0.
     999903    2    3    3    0    0  0.10050707693E+00 -0.57657751697E-01  0.56869651665E-01  0.13057454957E+00  0.19734915003E-01 0.  0.
         14    1    1    2    0    0 -0.39871385668E-02 -0.21672704224E-01 -0.70455837782E-02  0.23135333002E-01  0.00000000000E+00 0.  1.
     999901    1    3    3    0    0 -0.96519938364E-01  0.79330455921E-01 -0.49824067887E-01  0.89022011743E+00  0.88000000000E+00 0.  1.
        -11    1    4    4    0    0  0.17539059909E-01 -0.17459892515E-01  0.17560727700E-01  0.30349740485E-01  0.51100000000E-03 0.  1.
         11    1    4    4    0    0  0.82968017021E-01 -0.40197859182E-01  0.39308923966E-01  0.10022480908E+00  0.51100000000E-03 0. -1.
</event>
<event>
 8    1  0.1166736E+005  0.1043930E+01  0.7957747E-01            NaN
         13   -1    0    0    0    0  0.00000000000E+00  0.00000000000E+00  0.74505805969E-08  0.10566000000E+00  0.10566000000E+00 0.  1.
     999900   -1    0    0    0    0 -0.00000000000E+00 -0.00000000000E+00 -0.74505805969E-08  0.93827000000E+00  0.93827000000E+00 0.  1.
     999902    2    1    2    0    0 -0.20029299858E-02  0.11505917528E-02  0.23646099585E-01  0.10201713465E+01  0.10198946527E+01 0.  0.
     999903    2    3    3    0    0 -0.10695783873E+00 -0.70006140916E-01  0.21025164789E-01  0.13107872886E+00  0.19968389324E-01 0.  0.
         14    1    1    2    0    0  0.20029299858E-02 -0.11505917528E-02 -0.23646099585E-01  0.23758653487E-01  0.00000000000E+00 0. -1.
     999901    1    3    3    0    0  0.10495490875E+00  0.71156732668E-01  0.26209347966E-02  0.88909261766E+00  0.88000000000E+00 0. -1.
        -11    1    4    4    0    0 -0.57836178177E-01 -0.27522633482E-01  0.15473137860E-01  0.65895356257E-01  0.51100000000E-03 0.  1.
         11    1    4    4    0    0 -0.49121660554E-01 -0.42483507433E-01  0.55520269289E-02  0.65183372599E-01  0.51100000000E-03 0. -1.
</event>
<event>
 8    1  0.1166736E+005  0.1043930E+01  0.7957747E-01            NaN
         13   -1    0    0    0    0  0.00000000000E+00  0.00000000000E+00  0.74505805969E-08  0.10566000000E+00  0.10566000000E+00 0.  1.
     999900   -1    0    0    0    0 -0.00000000000E+00 -0.00000000000E+00 -0.74505805969E-08  0.93827000000E+00  0.93827000000E+00 0. -1.
     999902    2    1    2    0    0 -0.36609406539E-02  0.22234831028E-01  0.63504169005E-02  0.10205180801E+01  0.10202494959E+01 0.  0.
     999903    2    3    3    0    0 -0.97233256489E-01 -0.71368801911E-01 -0.42112381721E-01  0.12930202257E+00  0.19943627899E-01 0.  0.
         14    1    1    2    0    0  0.36609406539E-02 -0.22234831028E-01 -0.63504169005E-02  0.23411919873E-01  0.00000000000E+00 0. -1.
     999901    1    3    3    0    0  0.93572315835E-01  0.93603632940E-01  0.48462798621E-01  0.89121605755E+00  0.88000000000E+00 0. -1.
        -11    1    4    4    0    0 -0.55572117386E-01 -0.38039580453E-01 -0.33632838815E-01  0.75277479232E-01  0.51100000000E-03 0. -1.
         11    1    4    4    0    0 -0.41661139103E-01 -0.33329221458E-01 -0.84795429057E-02  0.54024543342E-01  0.51100000000E-03 0.  1.
</event>
<event>
 8    1  0.1166736E+005  0.1043930E+01  0.7957747E-01            NaN
         13   -1    0    0    0    0  0.00000000000E+00  0.00000000000E+00  0.74505805969E-08  0.10566000000E+00  0.10566000000E+00 0.  1.
     999900   -1    0    0    0    0 -0.00000000000E+00 -0.00000000000E+00 -0.74505805969E-08  0.93827000000E+00  0.93827000000E+00 0.  1.
     999902    2    1    2    0    0  0.55272173676E-02  0.94151364297E-04 -0.23313859029E-01  0.10199697200E+01  0.10196882537E+01 0.  0.
     999903    2    3    3    0    0  0.24774904419E-03  0.10518859909E+00  0.71410352305E-01  0.12865305798E+00  0.19684210728E-01 0.  0.
         14    1    1    2    0    0 -0.55272173676E-02 -0.94151364297E-04  0.23313859029E-01  0.23960280030E-01  0.00000000000E+00 0.  1.
     999901    1    3    3    0    0  0.52794683234E-02 -0.10509444773E+00 -0.94724211334E-01  0.89131666199E+00  0.88000000000E+00 0.  1.
        -11    1    4    4    0    0 -0.39910724786E-02  0.24832229243E-01  0.26332997927E-01  0.36417800174E-01  0.51100000000E-03 0. -1.
         11    1    4    4    0    0  0.42388215228E-02  0.80356369851E-01  0.45077354378E-01  0.92235257804E-01  0.51100000000E-03 0.  1.
</event>
<event>
 8    1  0.1166736E+005  0.1043930E+01  0.7957747E-01            NaN
         13   -1    0    0    0    0  0.00000000000E+00  0.00000000000E+00  0.74505805969E-08  0.10566000000E+00  0.10566000000E+00 0.  1.
     999900   -1    0    0    0    0 -0.00000000000E+00 -0.00000000000E+00 -0.74505805969E-08  0.93827000000E+00  0.93827000000E+00 0.  1.
     999902    2    1    2    0    0 -0.17754096412E-01  0.72476346414E-02 -0.13738343129E-01  0.10203402094E+01  0.10200674805E+01 0.  0.
     999903    2    3    3    0    0  0.46262402362E-01  0.59144574252E-01  0.10275220880E+00  0.12884626489E+00  0.20125929205E-01 0.  0.
         14    1    1    2    0    0  0.17754096412E-01 -0.72476346414E-02  0.13738343129E-01  0.23589790572E-01  0.00000000000E+00 0.  1.
     999901    1    3    3    0    0 -0.64016498774E-01 -0.51896939611E-01 -0.11649055193E+00  0.89149394454E+00  0.88000000000E+00 0.  1.
        -11    1    4    4    0    0  0.14282035857E-01  0.34554860160E-01  0.49777676989E-01  0.62258277814E-01  0.51100000000E-03 0. -1.
         11    1    4    4    0    0  0.31980366506E-01  0.24589714093E-01  0.52974531815E-01  0.66587987077E-01  0.51100000000E-03 0.  1.
</event>
<event>
 8    1  0.1166736E+005  0.1043930E+01  0.7957747E-01            NaN
         13   -1    0    0    0    0  0.00000000000E+00  0.00000000000E+00  0.74505805969E-08  0.10566000000E+00  0.10566000000E+00 0. -1.
     999900   -1    0    0    0    0 -0.00000000000E+00 -0.00000000000E+00 -0.74505805969E-08  0.93827000000E+00  0.93827000000E+00 0. -1.
     999902    2    1    2    0    0 -0.21374498538E-01  0.65736150788E-02 -0.73447915077E-02  0.10203922098E+01  0.10201206960E+01 0.  0.
     999903    2    3    3    0    0 -0.10795451443E+00 -0.41198161709E-01  0.61392544472E-01  0.13219005765E+00  0.18806943139E-01 0.  0.
         14    1    1    2    0    0  0.21374498538E-01 -0.65736150788E-02  0.73447915077E-02  0.23537790152E-01  0.00000000000E+00 0. -1.
     999901    1    3    3    0    0  0.86580015895E-01  0.47771776787E-01 -0.68737335980E-01  0.88820215220E+00  0.88000000000E+00 0.  1.
        -11    1    4    4    0    0 -0.23841710316E-01 -0.58030093160E-02  0.21364312085E-01  0.32539161326E-01  0.51100000000E-03 0. -1.
         11    1    4    4    0    0 -0.84112804117E-01 -0.35395152393E-01  0.40028232388E-01  0.99650896325E-01  0.51100000000E-03 0.  1.
</event>
<event>
 8    1  0.1166736E+005  0.1043930E+01  0.7957747E-01            NaN
         13   -1    0    0    0    0  0.00000000000E+00  0.00000000000E+00  0.74505805969E-08  0.10566000000E+00  0.10566000000E+00 0.  1.
     999900   -1    0    0    0    0 -0.00000000000E+00 -0.00000000000E+00 -0.74505805969E-08  0.93827000000E+00  0.93827000000E+00 0.  1.
     999902    2    1    2    0    0 -0.18128570695E-01 -0.13911229876E-01  0.91996330767E-02  0.10192966762E+01  0.10189989762E+01 0.  0.
     999903    2    3    3    0    0 -0.15921782571E-01 -0.11549057942E+00 -0.56291548514E-01  0.13103301657E+00  0.20232051374E-01 0.  0.
         14    1    1    2    0    0  0.18128570695E-01  0.13911229876E-01 -0.91996330767E-02  0.24633323788E-01  0.00000000000E+00 0.  1.
     999901    1    3    3    0    0 -0.22067881242E-02  0.10157934955E+00  0.65491181591E-01  0.88826365964E+00  0.88000000000E+00 0.  1.
        -11    1    4    4    0    0 -0.17819588431E-01 -0.10645501451E+00 -0.46386736412E-01  0.11748275738E+00  0.51100000000E-03 0.  1.
         11    1    4    4    0    0  0.18978058601E-02 -0.90355649093E-02 -0.99048121017E-02  0.13550259189E-01  0.51100000000E-03 0. -1.
</event>
<event>
 8    1  0.1166736E+005  0.1043930E+01  0.7957747E-01            NaN
         13   -1    0    0    0    0  0.00000000000E+00  0.00000000000E+00  0.74505805969E-08  0.10566000000E+00  0.10566000000E+00 0. -1.
     999900   -1    0    0    0    0 -0.00000000000E+00 -0.00000000000E+00 -0.74505805969E-08  0.93827000000E+00  0.93827000000E+00 0.  1.
     999902    2    1    2    0    0 -0.23290832927E-01 -0.88965368450E-02  0.31356285425E-02  0.10188014618E+01  0.10184915194E+01 0.  0.
     999903    2    3    3    0    0  0.89943195850E-01 -0.84863804214E-01 -0.26751497551E-01  0.12779853739E+00  0.18032742216E-01 0.  0.
         14    1    1    2    0    0  0.23290832927E-01  0.88965368450E-02 -0.31356285425E-02  0.25128538211E-01  0.00000000000E+00 0.  1.
     999901    1    3    3    0    0 -0.11323402878E+00  0.75967267369E-01  0.29887126094E-01  0.89100292440E+00  0.88000000000E+00 0. -1.
        -11    1    4    4    0    0  0.19420180144E-01 -0.28597099094E-01 -0.10457784303E-01  0.36118746475E-01  0.51100000000E-03 0. -1.
         11    1    4    4    0    0  0.70523015707E-01 -0.56266705120E-01 -0.16293713249E-01  0.91679790913E-01  0.51100000000E-03 0.  1.
</event>
<event>
 8    1  0.1166736E+005  0.1043930E+01  0.7957747E-01            NaN
         13   -1    0    0    0    0  0.00000000000E+00  0.00000000000E+00  0.74505805969E-08  0.10566000000E+00  0.10566000000E+00 0. -1.
     999900   -1    0    0    0    0 -0.00000000000E+00 -0.00000000000E+00 -0.74505805969E-08  0.93827000000E+00  0.93827000000E+00 0. -1.
     999902    2    1    2    0    0  0.19744835649E-02  0.19786002054E-01  0.10579403489E-01  0.10214064958E+01  0.10211581275E+01 0.  0.
     999903    2    3    3    0    0 -0.12497836341E+00 -0.33000144281E-01 -0.36807116778E-03  0.13066340726E+00  0.19083754293E-01 0.  0.
         14    1    1    2    0    0 -0.19744835649E-02 -0.19786002054E-01 -0.10579403489E-01  0.22523504186E-01  0.00000000000E+00 0.  1.
     999901    1    3    3    0    0  0.12695284698E+00  0.52786146335E-01  0.10947474656E-01  0.89074308855E+00  0.88000000000E+00 0.  1.
        -11    1    4    4    0    0 -0.80859290633E-01 -0.13622437274E-01  0.51322677709E-02  0.82160799488E-01  0.51100000000E-03 0.  1.
         11    1    4    4    0    0 -0.44119072777E-01 -0.19377707007E-01 -0.55003389387E-02  0.48502607775E-01  0.51100000000E-03 0. -1.
</event>
<event>
 8    1  0.1166736E+005  0.1043930E+01  0.7957747E-01            NaN
         13   -1    0    0    0    0  0.00000000000E+00  0.00000000000E+00  0.74505805969E-08  0.10566000000E+00  0.10566000000E+00 0. -1.
     999900   -1    0    0    0    0 -0.00000000000E+00 -0.00000000000E+00 -0.74505805969E-08  0.93827000000E+00  0.93827000000E+00 0. -1.
     999902    2    1    2    0    0 -0.14993209464E-01 -0.56809764702E-02 -0.15585834393E-01  0.10215695873E+01  0.10213248423E+01 0.  0.
     999903    2    3    3    0    0  0.31741470353E-01  0.81557974078E-01  0.93585171373E-01  0.12931790008E+00  0.17484590504E-01 0.  0.
         14    1    1    2    0    0  0.14993209464E-01  0.56809764702E-02  0.15585834393E-01  0.22360412729E-01  0.00000000000E+00 0. -1.
     999901    1    3    3    0    0 -0.46734679817E-01 -0.87238950548E-01 -0.10917100577E+00  0.89225168719E+00  0.88000000000E+00 0. -1.
        -11    1    4    4    0    0  0.15477290614E-01  0.25676882039E-01  0.41596763748E-01  0.51277682000E-01  0.51100000000E-03 0. -1.
         11    1    4    4    0    0  0.16264179739E-01  0.55881092039E-01  0.51988407624E-01  0.78040218082E-01  0.51100000000E-03 0.  1.
</event>
<event>
 8    1  0.1166736E+005  0.1043930E+01  0.7957747E-01            NaN
         13   -1    0    0    0    0  0.00000000000E+00  0.00000000000E+00  0.74505805969E-08  0.10566000000E+00  0.10566000000E+00 0.  1.
     999900   -1    0    0    0    0 -0.00000000000E+00 -0.00000000000E+00 -0.74505805969E-08  0.93827000000E+00  0.93827000000E+00 0.  1.
     999902    2    1    2    0    0  0.11740912551E-01 -0.15723186266E-01  0.11652661818E-01  0.10211078147E+01  0.10208527402E+01 0.  0.
     999903    2    3    3    0    0  0.72238465035E-01 -0.26093492634E-01  0.10711229270E+00  0.13381979031E+00  0.23139292202E-01 0.  0.
         14    1    1    2    0    0 -0.11740912551E-01  0.15723186266E-01 -0.11652661818E-01  0.22822185288E-01  0.00000000000E+00 0.  1.
     999901    1    3    3    0    0 -0.60497552484E-01  0.10370306368E-01 -0.95459630883E-01  0.88728802440E+00  0.88000000000E+00 0.  1.
        -11    1    4    4    0    0  0.55628662735E-01 -0.24727881768E-01  0.96358244585E-01  0.11397889574E+00  0.51100000000E-03 0. -1.
         11    1    4    4    0    0  0.16609802300E-01 -0.13656108662E-02  0.10754048116E-01  0.19840894571E-01  0.51100000000E-03 0.  1.
</event>
<event>
 8    1  0.1166736E+005  0.1043930E+01  0.7957747E-01            NaN
         13   -1    0    0    0    0  0.00000000000E+00  0.00000000000E+00  0.74505805969E-08  0.10566000000E+00  0.10566000000E+00 0. -1.
     999900   -1    0    0    0    0 -0.00000000000E+00 -0.00000000000E+00 -0.74505805969E-08  0.93827000000E+00  0.93827000000E+00 0. -1.
     999902    2    1    2    0    0  0.11241359549E-01 -0.19874777926E-01  0.73778220948E-02  0.10199340166E+01  0.10196517008E+01 0.  0.
     999903    2    3    3    0    0  0.10418475349E+00  0.74023144900E-01  0.15523846537E-01  0.13003421765E+00  0.18276189680E-01 0.  0.
         14    1    1    2    0    0 -0.11241359549E-01  0.19874777926E-01 -0.73778220948E-02  0.23995983435E-01  0.00000000000E+00 0.  1.
     999901    1    3    3    0    0 -0.92943393940E-01 -0.93897922826E-01 -0.81460244426E-02  0.88989979891E+00  0.88000000000E+00 0. -1.
        -11    1    4    4    0    0  0.10065406326E+00  0.66430835441E-01  0.13146952716E-01  0.12131529102E+00  0.51100000000E-03 0. -1.
         11    1    4    4    0    0  0.35306902250E-02  0.75923094592E-02  0.23768938218E-02  0.87189266329E-02  0.51100000000E-03 0.  1.
</event>
<event>
 8    1  0.1166736E+005  0.1043930E+01  0.7957747E-01            NaN
         13   -1    0    0    0    0  0.00000000000E+00  0.00000000000E+00  0.74505805969E-08  0.10566000000E+00  0.10566000000E+00 0. -1.
     999900   -1    0    0    0    0 -0.00000000000E+00 -0.00000000000E+00 -0.74505805969E-08  0.93827000000E+00  0.93827000000E+00 0. -1.
     999902    2    1    2    0    0 -0.21013825080E-01  0.10036354523E-01 -0.71050632762E-02  0.10195826966E+01  0.10192919523E+01 0.  0.
     999903    2    3    3    0    0 -0.44905088831E-01  0.86631585356E-01  0.82406984803E-01  0.13141039994E+00  0.30923833612E-01 0.  0.
         14    1    1    2    0    0  0.21013825080E-01 -0.10036354523E-01  0.71050632762E-02  0.24347303357E-01  0.00000000000E+00 0. -1.
     999901    1    3    3    0    0  0.23891263750E-01 -0.76595230833E-01 -0.89512048079E-01  0.88817229670E+00  0.88000000000E+00 0. -1.
        -11    1    4    4    0    0 -0.74869675506E-02  0.19161493720E-01  0.31791892245E-02  0.20822725321E-01  0.51100000000E-03 0.  1.
         11    1    4    4    0    0 -0.37418121280E-01  0.67470091636E-01  0.79227795579E-01  0.11058767462E+00  0.51100000000E-03 0. -1.
</event>
<event>
 8    1  0.1166736E+005  0.1043930E+01  0.7957747E-01            NaN
         13   -1    0    0    0    0  0.00000000000E+00  0.00000000000E+00  0.74505805969E-08  0.10566000000E+00  0.10566000000E+00 0.  1.
     999900   -1    0    0    0    0 -0.00000000000E+00 -0.00000000000E+00 -0.74505805969E-08  0.93827000000E+00  0.93827000000E+00 0.  1.
     999902    2    1    2    0    0 -0.22483726796E-01 -0.29227497859E-03  0.63425062997E-02  0.10205669783E+01  0.10202995278E+01 0.  0.
     999903    2    3    3    0    0 -0.95904619988E-02  0.84300624260E-01 -0.96930177445E-01  0.13040550866E+00  0.20287069224E-01 0.  0.
         14    1    1    2    0    0  0.22483726796E-01  0.29227497859E-03 -0.63425062997E-02  0.23363021668E-01  0.00000000000E+00 0. -1.
     999901    1    3    3    0    0 -0.12893264797E-01 -0.84592899238E-01  0.10327268374E+00  0.89016146967E+00  0.88000000000E+00 0. -1.
        -11    1    4    4    0    0 -0.36754844245E-02  0.67424153794E-01 -0.64571418279E-01  0.93430481537E-01  0.51100000000E-03 0. -1.
         11    1    4    4    0    0 -0.59149775744E-02  0.16876470465E-01 -0.32358759166E-01  0.36975027124E-01  0.51100000000E-03 0.  1.
</event>
<event>
 8    1  0.1166736E+005  0.1043930E+01  0.7957747E-01            NaN
         13   -1    0    0    0    0  0.00000000000E+00  0.00000000000E+00  0.74505805969E-08  0.10566000000E+00  0.10566000000E+00 0. -1.
     999900   -1    0    0    0    0 -0.00000000000E+00 -0.00000000000E+00 -0.74505805969E-08  0.93827000000E+00  0.93827000000E+00 0.  1.
     999902    2    1    2    0    0 -0.22871750459E-01 -0.22562611161E-02  0.52197117141E-02  0.10203619480E+01  0.10200897274E+01 0.  0.
     999903    2    3    3    0    0  0.16340356976E-01  0.68282301573E-02  0.12844506472E+00  0.13086512118E+00  0.17717598538E-01 0.  0.
         14    1    1    2    0    0  0.22871750459E-01  0.22562611161E-02 -0.52197117141E-02  0.23568051970E-01  0.00000000000E+00 0. -1.
     999901    1    3    3    0    0 -0.39212107435E-01 -0.90844912733E-02 -0.12322535300E+00  0.88949682685E+00  0.88000000000E+00 0.  1.
        -11    1    4    4    0    0  0.37042358979E-02  0.10502813162E-01  0.43534298689E-01  0.44939144754E-01  0.51100000000E-03 0.  1.
         11    1    4    4    0    0  0.12636121078E-01 -0.36745830045E-02  0.84910766030E-01  0.85925976427E-01  0.51100000000E-03 0. -1.
</event>
<event>
 8    1  0.1166736E+005  0.1043930E+01  0.7957747E-01            NaN
         13   -1    0    0    0    0  0.00000000000E+00  0.00000000000E+00  0.74505805969E-08  0.10566000000E+00  0.10566000000E+00 0. -1.
     999900   -1    0    0    0    0 -0.00000000000E+00 -0.00000000000E+00 -0.74505805969E-08  0.93827000000E+00  0.93827000000E+00 0. -1.
     999902    2    1    2    0    0  0.22615790348E-01 -0.28681978473E-02 -0.23391522387E-03  0.10211318587E+01  0.10208773274E+01 0.  0.
     999903    2    3    3    0    0  0.11129833675E+00 -0.27179521875E-01  0.66312695873E-01  0.13384155332E+00  0.19752002119E-01 0.  0.
         14    1    1    2    0    0 -0.22615790348E-01  0.28681978473E-02  0.23391522387E-03  0.22798141335E-01  0.00000000000E+00 0.  1.
     999901    1    3    3    0    0 -0.88682546404E-01  0.24311324027E-01 -0.66546611097E-01  0.88729030535E+00  0.88000000000E+00 0. -1.
        -11    1    4    4    0    0  0.32919196046E-01 -0.89104358253E-02  0.30483946186E-01  0.45744960717E-01  0.51100000000E-03 0.  1.
         11    1    4    4    0    0  0.78379140707E-01 -0.18269086049E-01  0.35828749687E-01  0.88096592602E-01  0.51100000000E-03 0. -1.
</event>
<event>
 8    1  0.1166736E+005  0.1043930E+01  0.7957747E-01            NaN
         13   -1    0    0    0    0  0.00000000000E+00  0.00000000000E+00  0.74505805969E-08  0.10566000000E+00  0.10566000000E+00 0.  1.
     999900   -1    0    0    0    0 -0.00000000000E+00 -0.00000000000E+00 -0.74505805969E-08  0.93827000000E+00  0.93827000000E+00 0.  1.
     999902    2    1    2    0    0 -0.18791374085E-01 -0.76246761536E-02 -0.13498776596E-01  0.10195687932E+01  0.10192777127E+01 0.  0.
     999903    2    3    3    0    0 -0.26178011737E-01 -0.11823835944E+00  0.45147525328E-01  0.13067659611E+00  0.19299631737E-01 0.  0.
         14    1    1    2    0    0  0.18791374085E-01  0.76246761536E-02  0.13498776596E-01  0.24361206785E-01  0.00000000000E+00 0.  1.
     999901    1    3    3    0    0  0.73866376514E-02  0.11061368329E+00 -0.58646301923E-01  0.88889219711E+00  0.88000000000E+00 0.  1.
        -11    1    4    4    0    0 -0.15424442614E-01 -0.68828267635E-01  0.16074507495E-01  0.72345661707E-01  0.51100000000E-03 0. -1.
         11    1    4    4    0    0 -0.10753569123E-01 -0.49410091808E-01  0.29073017832E-01  0.58330934402E-01  0.51100000000E-03 0.  1.
</event>
<event>
 8    1  0.1166736E+005  0.1043930E+01  0.7957747E-01            NaN
         13   -1    0    0    0    0  0.00000000000E+00  0.00000000000E+00  0.74505805969E-08  0.10566000000E+00  0.10566000000E+00 0.  1.
     999900   -1    0    0    0    0 -0.00000000000E+00 -0.00000000000E+00 -0.74505805969E-08  0.93827000000E+00  0.93827000000E+00 0. -1.
     999902    2    1    2    0    0  0.99029588167E-02 -0.14509885614E-01 -0.17101456246E-01  0.10194133693E+01  0.10191185173E+01 0.  0.
     999903    2    3    3    0    0  0.36623791640E-01 -0.11036406364E+00  0.56219099360E-01  0.13077512447E+00  0.20494325779E-01 0.  0.
         14    1    1    2    0    0 -0.99029588167E-02  0.14509885614E-01  0.17101456246E-01  0.24516630674E-01  0.00000000000E+00 0. -1.
     999901    1    3    3    0    0 -0.26720832823E-01  0.95854178027E-01 -0.73320555606E-01  0.88863824486E+00  0.88000000000E+00 0. -1.
        -11    1    4    4    0    0  0.31681085955E-01 -0.97331543268E-01  0.56313350692E-01  0.11682711633E+00  0.51100000000E-03 0. -1.
         11    1    4    4    0    0  0.49427056849E-02 -0.13032520373E-01 -0.94251331612E-04  0.13948008140E-01  0.51100000000E-03 0.  1.
</event>
<event>
 8    1  0.1166736E+005  0.1043930E+01  0.7957747E-01            NaN
         13   -1    0    0    0    0  0.00000000000E+00  0.00000000000E+00  0.74505805969E-08  0.10566000000E+00  0.10566000000E+00 0. -1.
     999900   -1    0    0    0    0 -0.00000000000E+00 -0.00000000000E+00 -0.74505805969E-08  0.93827000000E+00  0.93827000000E+00 0. -1.
     999902    2    1    2    0    0  0.14902721400E-01 -0.10211041588E-01  0.16352614632E-01  0.10195627170E+01  0.10192714896E+01 0.  0.
     999903    2    3    3    0    0 -0.78860075332E-01 -0.88884079998E-01 -0.45512507474E-01  0.12894034902E+00  0.20855073941E-01 0.  0.
         14    1    1    2    0    0 -0.14902721400E-01  0.10211041588E-01 -0.16352614632E-01  0.24367282999E-01  0.00000000000E+00 0. -1.
     999901    1    3    3    0    0  0.93762796732E-01  0.78673038410E-01  0.61865122106E-01  0.89062236799E+00  0.88000000000E+00 0. -1.
        -11    1    4    4    0    0 -0.36783259560E-01 -0.56966632021E-01 -0.24619934120E-01  0.72142966564E-01  0.51100000000E-03 0.  1.
         11    1    4    4    0    0 -0.42076815772E-01 -0.31917447977E-01 -0.20892573354E-01  0.56797382451E-01  0.51100000000E-03 0. -1.
</event>
<event>
 8    1  0.1166736E+005  0.1043930E+01  0.7957747E-01            NaN
         13   -1    0    0    0    0  0.00000000000E+00  0.00000000000E+00  0.74505805969E-08  0.10566000000E+00  0.10566000000E+00 0.  1.
     999900   -1    0    0    0    0 -0.00000000000E+00 -0.00000000000E+00 -0.74505805969E-08  0.93827000000E+00  0.93827000000E+00 0. -1.
     999902    2    1    2    0    0  0.13500486693E-01  0.17964395096E-01  0.46881747362E-02  0.10209743555E+01  0.10207162549E+01 0.  0.
     999903    2    3    3    0    0 -0.11512351063E+00  0.57945062163E-01 -0.60912631233E-02  0.13066048797E+00  0.20591423012E-01 0.  0.
         14    1    1    2    0    0 -0.13500486693E-01 -0.17964395096E-01 -0.46881747362E-02  0.22955644501E-01  0.00000000000E+00 0.  1.
     999901    1    3    3    0    0  0.12862399733E+00 -0.39980667067E-01  0.10779437860E-01  0.89031386753E+00  0.88000000000E+00 0. -1.
        -11    1    4    4    0    0 -0.44239733792E-01  0.33107622829E-01 -0.56635014938E-02  0.55548223244E-01  0.51100000000E-03 0. -1.
         11    1    4    4    0    0 -0.70883776840E-01  0.24837439334E-01 -0.42776162947E-03  0.75112264730E-01  0.51100000000E-03 0.  1.
</event>
<event>
 8    1  0.1166736E+005  0.1043930E+01  0.7957747E-01            NaN
         13   -1    0    0    0    0  0.00000000000E+00  0.00000000000E+00  0.74505805969E-08  0.10566000000E+00  0.10566000000E+00 0.  1.
     999900   -1    0    0    0    0 -0.00000000000E+00 -0.00000000000E+00 -0.74505805969E-08  0.93827000000E+00  0.93827000000E+00 0.  1.
     999902    2    1    2    0    0 -0.12062185979E-01 -0.76483380201E-02  0.18650210031E-01  0.10204390711E+01  0.10201686499E+01 0.  0.
     999903    2    3    3    0    0 -0.16939128542E-01 -0.11142601764E+00  0.67531962578E-01  0.13298033007E+00  0.20506358356E-01 0.  0.
         14    1    1    2    0    0  0.12062185979E-01  0.76483380201E-02 -0.18650210031E-01  0.23490928871E-01  0.00000000000E+00 0.  1.
     999901    1    3    3    0    0  0.48769425633E-02  0.10377767962E+00 -0.48881752548E-01  0.88745874106E+00  0.88000000000E+00 0. -1.
        -11    1    4    4    0    0 -0.16996902225E-01 -0.95871182491E-01  0.49722152436E-01  0.10932855017E+00  0.51100000000E-03 0. -1.
         11    1    4    4    0    0  0.57773682729E-04 -0.15554835145E-01  0.17809810142E-01  0.23651779901E-01  0.51100000000E-03 0.  1.
</event>
<event>
 8    1  0.1166736E+005  0.1043930E+01  0.7957747E-01            NaN
         13   -1    0    0    0    0  0.00000000000E+00  0.00000000000E+00  0.74505805969E-08  0.10566000000E+00  0.10566000000E+00 0. -1.
     999900   -1    0    0    0    0 -0.00000000000E+00 -0.00000000000E+00 -0.74505805969E-08  0.93827000000E+00  0.93827000000E+00 0.  1.
     999902    2    1    2    0    0  0.20729156867E-01 -0.93930501294E-03 -0.98602226839E-02  0.10209560097E+01  0.10206974917E+01 0.  0.
     999903    2    3    3    0    0  0.13011646564E+00 -0.23967117486E-01 -0.12017169749E-02  0.13384224407E+00  0.20188730137E-01 0.  0.
         14    1    1    2    0    0 -0.20729156867E-01  0.93930501294E-03  0.98602226839E-02  0.22973990287E-01  0.00000000000E+00 0. -1.
     999901    1    3    3    0    0 -0.10938730877E+00  0.23027812473E-01 -0.86585057090E-02  0.88711376564E+00  0.88000000000E+00 0. -1.
        -11    1    4    4    0    0  0.59290317659E-01 -0.18499375495E-01  0.61943291515E-02  0.62419544186E-01  0.51100000000E-03 0.  1.
         11    1    4    4    0    0  0.70826147978E-01 -0.54677419911E-02 -0.73960461264E-02  0.71422699887E-01  0.51100000000E-03 0. -1.
</event>
<event>
 8    1  0.1166736E+005  0.1043930E+01  0.7957747E-01            NaN
         13   -1    0    0    0    0  0.00000000000E+00  0.00000000000E+00  0.74505805969E-08  0.10566000000E+00  0.10566000000E+00 0. -1.
     999900   -1    0    0    0    0 -0.00000000000E+00 -0.00000000000E+00 -0.74505805969E-08  0.93827000000E+00  0.93827000000E+00 0. -1.
     999902    2    1    2    0    0  0.66838003093E-02 -0.24932656549E-01  0.14203407530E-01  0.10144673570E+01  0.10140394327E+01 0.  0.
     999903    2    3    3    0    0 -0.67853726890E-02  0.55807708906E-01 -0.10701135748E+00  0.12239480134E+00  0.19196747392E-01 0.  0.
         14    1    1    2    0    0 -0.66838003093E-02  0.24932656549E-01 -0.14203407530E-01  0.29462643036E-01  0.00000000000E+00 0. -1.
     999901    1    3    3    0    0  0.13469172998E-01 -0.80740365455E-01  0.12121476501E+00  0.89207255562E+00  0.88000000000E+00 0.  1.
        -11    1    4    4    0    0  0.37085726044E-02  0.39695949532E-01 -0.77751139634E-01  0.87378617266E-01  0.51100000000E-03 0. -1.
         11    1    4    4    0    0 -0.10493945293E-01  0.16111759374E-01 -0.29260217846E-01  0.35016184077E-01  0.51100000000E-03 0.  1.
</event>
<event>
 8    1  0.1166736E+005  0.1043930E+01  0.7957747E-01            NaN
         13   -1    0    0    0    0  0.00000000000E+00  0.00000000000E+00  0.74505805969E-08  0.10566000000E+00  0.10566000000E+00 0. -1.
     999900   -1    0    0    0    0 -0.00000000000E+00 -0.00000000000E+00 -0.74505805969E-08  0.93827000000E+00  0.93827000000E+00 0. -1.
     999902    2    1    2    0    0  0.13052544241E-01 -0.16747405532E-01  0.11135197821E-01  0.10199542386E+01  0.10196724041E+01 0.  0.
     999903    2    3    3    0    0  0.52665858092E-01 -0.66847390446E-01 -0.97217777040E-01  0.13101127629E+00  0.21688525161E-01 0.  0.
         14    1    1    2    0    0 -0.13052544241E-01  0.16747405532E-01 -0.11135197821E-01  0.23975761380E-01  0.00000000000E+00 0.  1.
     999901    1    3    3    0    0 -0.39613313850E-01  0.50099984914E-01  0.10835297486E+00  0.88894296233E+00  0.88000000000E+00 0.  1.
        -11    1    4    4    0    0  0.31225388534E-01 -0.23288418780E-01 -0.37828971330E-01  0.54301634702E-01  0.51100000000E-03 0.  1.
         11    1    4    4    0    0  0.21440469558E-01 -0.43558971666E-01 -0.59388805709E-01  0.76709641584E-01  0.51100000000E-03 0. -1.
</event>
<event>
 8    1  0.1166736E+005  0.1043930E+01  0.7957747E-01            NaN
         13   -1    0    0    0    0  0.00000000000E+00  0.00000000000E+00  0.74505805969E-08  0.10566000000E+00  0.10566000000E+00 0.  1.
     999900   -1    0    0    0    0 -0.00000000000E+00 -0.00000000000E+00 -0.74505805969E-08  0.93827000000E+00  0.93827000000E+00 0. -1.
     999902    2    1    2    0    0 -0.71160615691E-02 -0.18745653157E-01  0.14512787019E-01  0.10191780540E+01  0.10188774445E+01 0.  0.
     999903    2    3    3    0    0  0.99711846338E-01  0.73704240906E-01  0.24723385074E-01  0.12785126703E+00  0.18971907791E-01 0.  0.
         14    1    1    2    0    0  0.71160615691E-02  0.18745653157E-01 -0.14512787019E-01  0.24751946016E-01  0.00000000000E+00 0.  1.
     999901    1    3    3    0    0 -0.10682790791E+00 -0.92449894063E-01 -0.10210598055E-01  0.89132678695E+00  0.88000000000E+00 0. -1.
        -11    1    4    4    0    0  0.30110110599E-01  0.12452503444E-01  0.90306257122E-02  0.33815631357E-01  0.51100000000E-03 0.  1.
         11    1    4    4    0    0  0.69601735740E-01  0.61251737462E-01  0.15692759361E-01  0.94035635678E-01  0.51100000000E-03 0. -1.
</event>
<event>
 8    1  0.1166736E+005  0.1043930E+01  0.7957747E-01            NaN
         13   -1    0    0    0    0  0.00000000000E+00  0.00000000000E+00  0.74505805969E-08  0.10566000000E+00  0.10566000000E+00 0. -1.
     999900   -1    0    0    0    0 -0.00000000000E+00 -0.00000000000E+00 -0.74505805969E-08  0.93827000000E+00  0.93827000000E+00 0. -1.
     999902    2    1    2    0    0  0.23019648754E-01 -0.26713498074E-02 -0.10640739693E-01  0.10184296926E+01  0.10181103933E+01 0.  0.
     999903    2    3    3    0    0  0.25181717408E-01 -0.12415716251E+00  0.17817170304E-01  0.12962525407E+00  0.20883846390E-01 0.  0.
         14    1    1    2    0    0 -0.23019648754E-01  0.26713498074E-02  0.10640739693E-01  0.25500307444E-01  0.00000000000E+00 0. -1.
     999901    1    3    3    0    0 -0.21620686538E-02  0.12148581271E+00 -0.28457909997E-01  0.88880443849E+00  0.88000000000E+00 0. -1.
        -11    1    4    4    0    0  0.16193443535E-01 -0.10584105621E+00  0.20568535885E-01  0.10903156691E+00  0.51100000000E-03 0.  1.
         11    1    4    4    0    0  0.89882738729E-02 -0.18316106307E-01 -0.27513655810E-02  0.20593687164E-01  0.51100000000E-03 0. -1.
</event>
<event>
 8    1  0.1166736E+005  0.1043930E+01  0.7957747E-01            NaN
         13   -1    0    0    0    0  0.00000000000E+00  0.00000000000E+00  0.74505805969E-08  0.10566000000E+00  0.10566000000E+00 0.  1.
     999900   -1    0    0    0    0 -0.00000000000E+00 -0.00000000000E+00 -0.74505805969E-08  0.93827000000E+00  0.93827000000E+00 0. -1.
     999902    2    1    2    0    0 -0.23005309727E-01  0.58706712814E-02 -0.21731023523E-02  0.10200881999E+01  0.10198095431E+01 0.  0.
     999903    2    3    3    0    0  0.77959698448E-01 -0.41480599940E-01  0.90649936963E-01  0.12820693407E+00  0.20524427353E-01 0.  0.
         14    1    1    2    0    0  0.23005309727E-01 -0.58706712814E-02  0.21731023523E-02  0.23841800073E-01  0.00000000000E+00 0.  1.
     999901    1    3    3    0    0 -0.10096500817E+00  0.47351271221E-01 -0.92823039316E-01  0.89188126586E+00  0.88000000000E+00 0. -1.
        -11    1    4    4    0    0  0.58385107809E-01 -0.23044896718E-01  0.71770978075E-01  0.95347902408E-01  0.51100000000E-03 0.  1.
         11    1    4    4    0    0  0.19574590639E-01 -0.18435703222E-01  0.18878958888E-01  0.32859031660E-01  0.51100000000E-03 0. -1.
</event>
<event>
 8    1  0.1166736E+005  0.1043930E+01  0.7957747E-01            NaN
         13   -1    0    0    0    0  0.00000000000E+00  0.00000000000E+00  0.74505805969E-08  0.10566000000E+00  0.10566000000E+00 0.  1.
     999900   -1    0    0    0    0 -0.00000000000E+00 -0.00000000000E+00 -0.74505805969E-08  0.93827000000E+00  0.93827000000E+00 0.  1.
     999902    2    1    2    0    0 -0.22778393788E-01 -0.18136233370E-02  0.51527124594E-02  0.10205057626E+01  0.10202368924E+01 0.  0.
     999903    2    3    3    0    0 -0.27631982905E-03  0.96941268204E-01  0.85853917850E-01  0.13102751299E+00  0.19990700750E-01 0.  0.
         14    1    1    2    0    0  0.22778393788E-01  0.18136233370E-02 -0.51527124594E-02  0.23424237423E-01  0.00000000000E+00 0.  1.
     999901    1    3    3    0    0 -0.22502073959E-01 -0.98754891541E-01 -0.80701205390E-01  0.88947824959E+00  0.88000000000E+00 0.  1.
        -11    1    4    4    0    0  0.57548188074E-02  0.66616552838E-01  0.67771917162E-01  0.95205971074E-01  0.51100000000E-03 0. -1.
         11    1    4    4    0    0 -0.60311386365E-02  0.30324715367E-01  0.18082000688E-01  0.35821541916E-01  0.51100000000E-03 0.  1.
</event>
<event>
 8    1  0.1166736E+005  0.1043930E+01  0.7957747E-01            NaN
         13   -1    0    0    0    0  0.00000000000E+00  0.00000000000E+00  0.74505805969E-08  0.10566000000E+00  0.10566000000E+00 0. -1.
     999900   -1    0    0    0    0 -0.00000000000E+00 -0.00000000000E+00 -0.74505805969E-08  0.93827000000E+00  0.93827000000E+00 0.  1.
     999902    2    1    2    0    0 -0.11172371856E-01  0.17673458575E-01  0.11078775042E-01  0.10202675342E+01  0.10199931025E+01 0.  0.
     999903    2    3    3    0    0 -0.84186568252E-01  0.62840613853E-01 -0.76794253801E-01  0.13173345271E+00  0.20494490038E-01 0.  0.
         14    1    1    2    0    0  0.11172371856E-01 -0.17673458575E-01 -0.11078775042E-01  0.23662465791E-01  0.00000000000E+00 0.  1.
     999901    1    3    3    0    0  0.73014196396E-01 -0.45167155278E-01  0.87873028843E-01  0.88853408150E+00  0.88000000000E+00 0. -1.
        -11    1    4    4    0    0 -0.71109369642E-01  0.51641304353E-01 -0.72630614381E-01  0.11401242929E+00  0.51100000000E-03 0. -1.
         11    1    4    4    0    0 -0.13077198610E-01  0.11199309500E-01 -0.41636394200E-02  0.17721023418E-01  0.51100000000E-03 0.  1.
</event>
<event>
 8    1  0.1166736E+005  0.1043930E+01  0.7957747E-01            NaN
         13   -1    0    0    0    0  0.00000000000E+00  0.00000000000E+00  0.74505805969E-08  0.10566000000E+00  0.10566000000E+00 0.  1.
     999900   -1    0    0    0    0 -0.00000000000E+00 -0.00000000000E+00 -0.74505805969E-08  0.93827000000E+00  0.93827000000E+00 0.  1.
     999902    2    1    2    0    0  0.22191996309E-01  0.35397209272E-02 -0.14400691169E-01  0.10172392857E+01  0.10168890648E+01 0.  0.
     999903    2    3    3    0    0 -0.99051310452E-01  0.47811613882E-01  0.55905444678E-01  0.12504934365E+00  0.20366813137E-01 0.  0.
         14    1    1    2    0    0 -0.22191996309E-01 -0.35397209272E-02  0.14400691169E-01  0.26690714314E-01  0.00000000000E+00 0. -1.
     999901    1    3    3    0    0  0.12124330676E+00 -0.44271892955E-01 -0.70306135847E-01  0.89218994204E+00  0.88000000000E+00 0.  1.
        -11    1    4    4    0    0 -0.31019559698E-01  0.23760258079E-01  0.13453069335E-01  0.41328067259E-01  0.51100000000E-03 0.  1.
         11    1    4    4    0    0 -0.68031750754E-01  0.24051355804E-01  0.42452375343E-01  0.83721276387E-01  0.51100000000E-03 0. -1.
</event>
<event>
 8    1  0.1166736E+005  0.1043930E+01  0.7957747E-01            NaN
         13   -1    0    0    0    0  0.00000000000E+00  0.00000000000E+00  0.74505805969E-08  0.10566000000E+00  0.10566000000E+00 0.  1.
     999900   -1    0    0    0    0 -0.00000000000E+00 -0.00000000000E+00 -0.74505805969E-08  0.93827000000E+00  0.93827000000E+00 0. -1.
     999902    2    1    2    0    0 -0.21069067341E-01  0.53327061674E-02  0.84736205733E-02  0.10206030714E+01  0.10203364561E+01 0.  0.
     999903    2    3    3    0    0 -0.10065745257E+00 -0.58687258739E-01 -0.58659355464E-01  0.13215515312E+00  0.21164768304E-01 0.  0.
         14    1    1    2    0    0  0.21069067341E-01 -0.53327061674E-02 -0.84736205733E-02  0.23326928630E-01  0.00000000000E+00 0. -1.
     999901    1    3    3    0    0  0.79588385227E-01  0.64019964907E-01  0.67132976037E-01  0.88844791825E+00  0.88000000000E+00 0.  1.
        -11    1    4    4    0    0 -0.53123542509E-01 -0.34289905960E-01 -0.20408764102E-01  0.66443112455E-01  0.51100000000E-03 0.  1.
         11    1    4    4    0    0 -0.47533910058E-01 -0.24397352779E-01 -0.38250591362E-01  0.65712040667E-01  0.51100000000E-03 0. -1.
</event>
<event>
 8    1  0.1166736E+005  0.1043930E+01  0.7957747E-01            NaN
         13   -1    0    0    0    0  0.00000000000E+00  0.00000000000E+00  0.74505805969E-08  0.10566000000E+00  0.10566000000E+00 0.  1.
     999900   -1    0    0    0    0 -0.00000000000E+00 -0.00000000000E+00 -0.74505805969E-08  0.93827000000E+00  0.93827000000E+00 0. -1.
     999902    2    1    2    0    0  0.79221785341E-03 -0.25959659222E-01  0.26681015965E-02  0.10178215668E+01  0.10174866543E+01 0.  0.
     999903    2    3    3    0    0 -0.66093954397E-01 -0.11152389370E+00  0.49188028743E-02  0.13114233289E+00  0.19186640676E-01 0.  0.
         14    1    1    2    0    0 -0.79221785341E-03  0.25959659222E-01 -0.26681015965E-02  0.26108433162E-01  0.00000000000E+00 0.  1.
     999901    1    3    3    0    0  0.66886172251E-01  0.85564234476E-01 -0.22507012778E-02  0.88667923395E+00  0.88000000000E+00 0. -1.
        -11    1    4    4    0    0 -0.63754630058E-02 -0.19961864663E-01  0.60589086020E-02  0.21819579827E-01  0.51100000000E-03 0.  1.
         11    1    4    4    0    0 -0.59718491392E-01 -0.91562029035E-01 -0.11401057277E-02  0.10932275306E+00  0.51100000000E-03 0. -1.
</event>
<event>
 7    1  0.1166736E+005  0.1043930E+01  0.7957747E-01            NaN
         13   -1    0    0    0    0  0.00000000000E+00  0.00000000000E+00  0.74505805969E-08  0.10566000000E+00  0.10566000000E+00 0.  1.
     999900   -1    0    0    0    0 -0.00000000000E+00 -0.00000000000E+00 -0.74505805969E-08  0.93827000000E+00  0.93827000000E+00 0.  1.
     999903    2    1    2    0    0  0.85720306330E-01 -0.65723907413E-01  0.68972777203E-02  0.11035907368E+00  0.21539493517E-01 0.  0.
         14    1    1    2    0    0  0.40867963862E-01 -0.69705802080E-02 -0.25242262537E-02  0.41534939230E-01  0.00000000000E+00 0.  1.
     999901    1    1    2    0    0 -0.12658827019E+00  0.72694487621E-01 -0.43730514666E-02  0.89203598709E+00  0.88000000000E+00 0.  1.
        -11    1    3    3    0    0  0.15458911199E-01 -0.17134747247E-01 -0.62777949749E-02  0.23921733412E-01  0.51100000000E-03 0. -1.
         11    1    3    3    0    0  0.70261395131E-01 -0.48589160166E-01  0.13175072695E-01  0.86437340270E-01  0.51100000000E-03 0.  1.
</event>
<event>
 8    1  0.1166736E+005  0.1043930E+01  0.7957747E-01            NaN
         13   -1    0    0    0    0  0.00000000000E+00  0.00000000000E+00  0.74505805969E-08  0.10566000000E+00  0.10566000000E+00 0.  1.
     999900   -1    0    0    0    0 -0.00000000000E+00 -0.00000000000E+00 -0.74505805969E-08  0.93827000000E+00  0.93827000000E+00 0.  1.
     999902    2    1    2    0    0 -0.17755663343E-01 -0.18359693572E-01  0.24847429235E-01  0.10082966355E+01  0.10076667943E+01 0.  0.
     999903    2    3    3    0    0  0.95153092409E-01  0.49885689894E-01 -0.36088691866E-01  0.11637790018E+00  0.26433481013E-01 0.  0.
         14    1    1    2    0    0  0.17755663343E-01  0.18359693572E-01 -0.24847429235E-01  0.35633364540E-01  0.00000000000E+00 0. -1.
     999901    1    3    3    0    0 -0.11290875575E+00 -0.68245383466E-01  0.60936121101E-01  0.89191873528E+00  0.88000000000E+00 0. -1.
        -11    1    4    4    0    0  0.29417875270E-01  0.15992721032E-01  0.12820472546E-02  0.33512434671E-01  0.51100000000E-03 0. -1.
         11    1    4    4    0    0  0.65735217139E-01  0.33892968861E-01 -0.37370739121E-01  0.82865465509E-01  0.51100000000E-03 0.  1.
</event>
<event>
 8    1  0.1166736E+005  0.1043930E+01  0.7957747E-01            NaN
         13   -1    0    0    0    0  0.00000000000E+00  0.00000000000E+00  0.74505805969E-08  0.10566000000E+00  0.10566000000E+00 0.  1.
     999900   -1    0    0    0    0 -0.00000000000E+00 -0.00000000000E+00 -0.74505805969E-08  0.93827000000E+00  0.93827000000E+00 0. -1.
     999902    2    1    2    0    0 -0.30768780828E-02 -0.21707603231E-01  0.92482991589E-02  0.10201346590E+01  0.10198570999E+01 0.  0.
     999903    2    3    3    0    0  0.39091245654E-01 -0.11955883829E+00 -0.36693680577E-01  0.13251780450E+00  0.19801540719E-01 0.  0.
         14    1    1    2    0    0  0.30768780828E-02  0.21707603231E-01 -0.92482991589E-02  0.23795341016E-01  0.00000000000E+00 0. -1.
     999901    1    3    3    0    0 -0.42168123737E-01  0.97851235060E-01  0.45941979736E-01  0.88761685448E+00  0.88000000000E+00 0.  1.
        -11    1    4    4    0    0  0.31184685591E-01 -0.10656273662E+00 -0.37712472094E-01  0.11726292306E+00  0.51100000000E-03 0. -1.
         11    1    4    4    0    0  0.79065600635E-02 -0.12996101668E-01  0.10187915172E-02  0.15254881440E-01  0.51100000000E-03 0.  1.
</event>
<event>
 8    1  0.1166736E+005  0.1043930E+01  0.7957747E-01            NaN
         13   -1    0    0    0    0  0.00000000000E+00  0.00000000000E+00  0.74505805969E-08  0.10566000000E+00  0.10566000000E+00 0.  1.
     999900   -1    0    0    0    0 -0.00000000000E+00 -0.00000000000E+00 -0.74505805969E-08  0.93827000000E+00  0.93827000000E+00 0.  1.
     999902    2    1    2    0    0 -0.13630042759E-01  0.68488789246E-02 -0.16850859806E-01  0.10212003567E+01  0.10209473698E+01 0.  0.
     999903    2    3    3    0    0  0.99600088678E-01 -0.80303082216E-01 -0.60719207965E-02  0.12961036544E+00  0.19829672949E-01 0.  0.
         14    1    1    2    0    0  0.13630042759E-01 -0.68488789246E-02  0.16850859806E-01  0.22729643296E-01  0.00000000000E+00 0.  1.
     999901    1    3    3    0    0 -0.11323013144E+00  0.87151961140E-01 -0.10778939010E-01  0.89158999126E+00  0.88000000000E+00 0.  1.
        -11    1    4    4    0    0  0.37174499673E-01 -0.26300025206E-01 -0.11233006660E-01  0.46904971073E-01  0.51100000000E-03 0. -1.
         11    1    4    4    0    0  0.62425589005E-01 -0.54003057010E-01  0.51610858632E-02  0.82705394367E-01  0.51100000000E-03 0.  1.
</event>
<event>
 8    1  0.1166736E+005  0.1043930E+01  0.7957747E-01            NaN
         13   -1    0    0    0    0  0.00000000000E+00  0.00000000000E+00  0.74505805969E-08  0.10566000000E+00  0.10566000000E+00 0. -1.
     999900   -1    0    0    0    0 -0.00000000000E+00 -0.00000000000E+00 -0.74505805969E-08  0.93827000000E+00  0.93827000000E+00 0. -1.
     999902    2    1    2    0    0 -0.15362544826E-01  0.26668579456E-02 -0.17043168133E-01  0.10208304438E+01  0.10205690597E+01 0.  0.
     999903    2    3    3    0    0  0.99252314712E-01  0.50604233500E-01  0.61216090681E-01  0.12866506142E+00  0.19886624839E-01 0.  0.
         14    1    1    2    0    0  0.15362544826E-01 -0.26668579456E-02  0.17043168133E-01  0.23099556161E-01  0.00000000000E+00 0.  1.
     999901    1    3    3    0    0 -0.11461485954E+00 -0.47937375554E-01 -0.78259258814E-01  0.89216538242E+00  0.88000000000E+00 0.  1.
        -11    1    4    4    0    0  0.19427109862E-01  0.44130589730E-02  0.46216333522E-02  0.20457475478E-01  0.51100000000E-03 0.  1.
         11    1    4    4    0    0  0.79825204850E-01  0.46191174527E-01  0.56594457329E-01  0.10820758594E+00  0.51100000000E-03 0. -1.
</event>
<event>
 8    1  0.1166736E+005  0.1043930E+01  0.7957747E-01            NaN
         13   -1    0    0    0    0  0.00000000000E+00  0.00000000000E+00  0.74505805969E-08  0.10566000000E+00  0.10566000000E+00 0.  1.
     999900   -1    0    0    0    0 -0.00000000000E+00 -0.00000000000E+00 -0.74505805969E-08  0.93827000000E+00  0.93827000000E+00 0.  1.
     999902    2    1    2    0    0  0.17583270897E-01  0.12858713414E-01 -0.88825636919E-02  0.10204051650E+01  0.10201339534E+01 0.  0.
     999903    2    3    3    0    0  0.87112007441E-01  0.80365099926E-01 -0.58468326184E-01  0.13369771305E+00  0.20235666066E-01 0.  0.
         14    1    1    2    0    0 -0.17583270897E-01 -0.12858713414E-01  0.88825636919E-02  0.23524835044E-01  0.00000000000E+00 0.  1.
     999901    1    3    3    0    0 -0.69528736545E-01 -0.67506386512E-01  0.49585762493E-01  0.88670745191E+00  0.88000000000E+00 0. -1.
        -11    1    4    4    0    0  0.51752383192E-01  0.41194525650E-01 -0.42250018311E-01  0.78489638029E-01  0.51100000000E-03 0. -1.
         11    1    4    4    0    0  0.35359624249E-01  0.39170574276E-01 -0.16218307873E-01  0.55208075020E-01  0.51100000000E-03 0.  1.
</event>
<event>
 8    1  0.1166736E+005  0.1043930E+01  0.7957747E-01            NaN
         13   -1    0    0    0    0  0.00000000000E+00  0.00000000000E+00  0.74505805969E-08  0.10566000000E+00  0.10566000000E+00 0. -1.
     999900   -1    0    0    0    0 -0.00000000000E+00 -0.00000000000E+00 -0.74505805969E-08  0.93827000000E+00  0.93827000000E+00 0.  1.
     999902    2    1    2    0    0 -0.10270380909E-01  0.21698121924E-01  0.25213893095E-02  0.10197919259E+01  0.10195062165E+01 0.  0.
     999903    2    3    3    0    0  0.11846879726E+00 -0.23265235165E-01 -0.38732453180E-01  0.12833392966E+00  0.19830972737E-01 0.  0.
         14    1    1    2    0    0  0.10270380909E-01 -0.21698121924E-01 -0.25213893095E-02  0.24138074138E-01  0.00000000000E+00 0. -1.
     999901    1    3    3    0    0 -0.12873917817E+00  0.44963357089E-01  0.41253842490E-01  0.89145799620E+00  0.88000000000E+00 0. -1.
        -11    1    4    4    0    0  0.70153670658E-03 -0.13713102837E-02 -0.28656697489E-02  0.32933007386E-02  0.51100000000E-03 0. -1.
         11    1    4    4    0    0  0.11776726056E+00 -0.21893924881E-01 -0.35866783431E-01  0.12504062892E+00  0.51100000000E-03 0.  1.
</event>
<event>
 8    1  0.1166736E+005  0.1043930E+01  0.7957747E-01            NaN
         13   -1    0    0    0    0  0.00000000000E+00  0.00000000000E+00  0.74505805969E-08  0.10566000000E+00  0.10566000000E+00 0. -1.
     999900   -1    0    0    0    0 -0.00000000000E+00 -0.00000000000E+00 -0.74505805969E-08  0.93827000000E+00  0.93827000000E+00 0.  1.
     999902    2    1    2    0    0  0.34671474594E-02  0.20287756759E-01  0.94278199090E-02  0.10212915819E+01  0.10210406443E+01 0.  0.
     999903    2    3    3    0    0  0.38244988547E-01 -0.28998802641E-01  0.12152206870E+00  0.13213255013E+00  0.19692331464E-01 0.  0.
         14    1    1    2    0    0 -0.34671474594E-02 -0.20287756759E-01 -0.94278199090E-02  0.22638418099E-01  0.00000000000E+00 0.  1.
     999901    1    3    3    0    0 -0.34777841088E-01  0.49286559400E-01 -0.11209424879E+00  0.88915903177E+00  0.88000000000E+00 0. -1.
        -11    1    4    4    0    0  0.29907501940E-01 -0.31152793356E-01  0.10363963288E+00  0.11227818056E+00  0.51100000000E-03 0. -1.
         11    1    4    4    0    0  0.83374866065E-02  0.21539907152E-02  0.17882435822E-01  0.19854369565E-01  0.51100000000E-03 0.  1.
</event>
<event>
 8    1  0.1166736E+005  0.1043930E+01  0.7957747E-01            NaN
         13   -1    0    0    0    0  0.00000000000E+00  0.00000000000E+00  0.74505805969E-08  0.10566000000E+00  0.10566000000E+00 0. -1.
     999900   -1    0    0    0    0 -0.00000000000E+00 -0.00000000000E+00 -0.74505805969E-08  0.93827000000E+00  0.93827000000E+00 0.  1.
     999902    2    1    2    0    0 -0.11328862611E-01 -0.16394163046E-01  0.12666192755E-01  0.10203176272E+01  0.10200443697E+01 0.  0.
     999903    2    3    3    0    0 -0.46617282869E-02  0.11624997085E+00  0.53139938829E-01  0.12943208963E+00  0.19824865589E-01 0.  0.
         14    1    1    2    0    0  0.11328862611E-01  0.16394163046E-01 -0.12666192755E-01  0.23612372794E-01  0.00000000000E+00 0.  1.
     999901    1    3    3    0    0 -0.66671343236E-02 -0.13264413389E+00 -0.40473746074E-01  0.89088553757E+00  0.88000000000E+00 0.  1.
        -11    1    4    4    0    0 -0.11460337463E-01  0.45569170998E-01  0.22346990618E-01  0.52034006100E-01  0.51100000000E-03 0.  1.
         11    1    4    4    0    0  0.67986091761E-02  0.70680799849E-01  0.30792948211E-01  0.77398083533E-01  0.51100000000E-03 0. -1.
</event>
<event>
 8    1  0.1166736E+005  0.1043930E+01  0.7957747E-01            NaN
         13   -1    0    0    0    0  0.00000000000E+00  0.00000000000E+00  0.74505805969E-08  0.10566000000E+00  0.10566000000E+00 0. -1.
     999900   -1    0    0    0    0 -0.00000000000E+00 -0.00000000000E+00 -0.74505805969E-08  0.93827000000E+00  0.93827000000E+00 0. -1.
     999902    2    1    2    0    0  0.10044566421E-01  0.20088916019E-01  0.39465918974E-02  0.10211257581E+01  0.10208710890E+01 0.  0.
     999903    2    3    3    0    0  0.58278469663E-02  0.11869559563E+00  0.58402463590E-01  0.13393553049E+00  0.20131327650E-01 0.  0.
         14    1    1    2    0    0 -0.10044566421E-01 -0.20088916019E-01 -0.39465918974E-02  0.22804241909E-01  0.00000000000E+00 0. -1.
     999901    1    3    3    0    0  0.42167194549E-02 -0.98606679608E-01 -0.54455871693E-01  0.88719022760E+00  0.88000000000E+00 0.  1.
        -11    1    4    4    0    0  0.92376518468E-02  0.81217576926E-01  0.31186719509E-01  0.87490008619E-01  0.51100000000E-03 0.  1.
         11    1    4    4    0    0 -0.34098048806E-02  0.37478018702E-01  0.27215744082E-01  0.46445521873E-01  0.51100000000E-03 0. -1.
</event>
<event>
 8    1  0.1166736E+005  0.1043930E+01  0.7957747E-01            NaN
         13   -1    0    0    0    0  0.00000000000E+00  0.00000000000E+00  0.74505805969E-08  0.10566000000E+00  0.10566000000E+00 0.  1.
     999900   -1    0    0    0    0 -0.00000000000E+00 -0.00000000000E+00 -0.74505805969E-08  0.93827000000E+00  0.93827000000E+00 0.  1.
     999902    2    1    2    0    0 -0.15081370727E-01  0.84555386718E-02 -0.18563591322E-01  0.10185616969E+01  0.10182457364E+01 0.  0.
     999903    2    3    3    0    0 -0.61970021390E-01 -0.10425658971E+00 -0.41764282653E-01  0.12983179336E+00  0.20057896482E-01 0.  0.
         14    1    1    2    0    0  0.15081370727E-01 -0.84555386718E-02  0.18563591322E-01  0.25368303057E-01  0.00000000000E+00 0.  1.
     999901    1    3    3    0    0  0.46888650663E-01  0.11271212839E+00  0.23200691332E-01  0.88872990358E+00  0.88000000000E+00 0. -1.
        -11    1    4    4    0    0 -0.14036102203E-01 -0.26632352173E-01 -0.16066123289E-02  0.30151893332E-01  0.51100000000E-03 0. -1.
         11    1    4    4    0    0 -0.47933919187E-01 -0.77624237542E-01 -0.40157670324E-01  0.99679900027E-01  0.51100000000E-03 0.  1.
</event>
<event>
 8    1  0.1166736E+005  0.1043930E+01  0.7957747E-01            NaN
         13   -1    0    0    0    0  0.00000000000E+00  0.00000000000E+00  0.74505805969E-08  0.10566000000E+00  0.10566000000E+00 0.  1.
     999900   -1    0    0    0    0 -0.00000000000E+00 -0.00000000000E+00 -0.74505805969E-08  0.93827000000E+00  0.93827000000E+00 0. -1.
     999902    2    1    2    0    0  0.89821032262E-02 -0.21197053331E-01 -0.17933738421E-03  0.10209077193E+01  0.10206481009E+01 0.  0.
     999903    2    3    3    0    0  0.18305810538E-01 -0.12985660480E+00 -0.19485261234E-01  0.13396547293E+00  0.19215411033E-01 0.  0.
         14    1    1    2    0    0 -0.89821032262E-02  0.21197053331E-01  0.17933738421E-03  0.23022280734E-01  0.00000000000E+00 0. -1.
     999901    1    3    3    0    0 -0.93237073118E-02  0.10865955147E+00  0.19305923849E-01  0.88694224634E+00  0.88000000000E+00 0.  1.
        -11    1    4    4    0    0  0.68325722756E-02 -0.10855543602E-01 -0.37958347826E-02  0.13386424223E-01  0.51100000000E-03 0. -1.
         11    1    4    4    0    0  0.11473238262E-01 -0.11900106120E+00 -0.15689426451E-01  0.12057904870E+00  0.51100000000E-03 0.  1.
</event>
<event>
 8    1  0.1166736E+005  0.1043930E+01  0.7957747E-01            NaN
         13   -1    0    0    0    0  0.00000000000E+00  0.00000000000E+00  0.74505805969E-08  0.10566000000E+00  0.10566000000E+00 0. -1.
     999900   -1    0    0    0    0 -0.00000000000E+00 -0.00000000000E+00 -0.74505805969E-08  0.93827000000E+00  0.93827000000E+00 0.  1.
     999902    2    1    2    0    0 -0.15303276770E-01 -0.15670907360E-01  0.87606812890E-02  0.10203393842E+01  0.10200666360E+01 0.  0.
     999903    2    3    3    0    0 -0.68640828456E-01  0.90517940924E-01 -0.59330186131E-01  0.12974557547E+00  0.20218368051E-01 0.  0.
         14    1    1    2    0    0  0.15303276770E-01  0.15670907360E-01 -0.87606812890E-02  0.23590615804E-01  0.00000000000E+00 0.  1.
     999901    1    3    3    0    0  0.53337551686E-01 -0.10618884828E+00  0.68090867420E-01  0.89059380873E+00  0.88000000000E+00 0. -1.
        -11    1    4    4    0    0 -0.92560683765E-02  0.21228581652E-01 -0.19061962475E-01  0.29999116906E-01  0.51100000000E-03 0.  1.
         11    1    4    4    0    0 -0.59384760080E-01  0.69289359272E-01 -0.40268223656E-01  0.99746458561E-01  0.51100000000E-03 0. -1.
</event>
<event>
 8    1  0.1166736E+005  0.1043930E+01  0.7957747E-01            NaN
         13   -1    0    0    0    0  0.00000000000E+00  0.00000000000E+00  0.74505805969E-08  0.10566000000E+00  0.10566000000E+00 0. -1.
     999900   -1    0    0    0    0 -0.00000000000E+00 -0.00000000000E+00 -0.74505805969E-08  0.93827000000E+00  0.93827000000E+00 0.  1.
     999902    2    1    2    0    0  0.19388152924E-01  0.26991223213E-02 -0.14841526745E-01  0.10193646453E+01  0.10190686059E+01 0.  0.
     999903    2    3    3    0    0  0.65301446117E-01  0.85613916402E-01 -0.74281665566E-01  0.13228177225E+00  0.19664177664E-01 0.  0.
         14    1    1    2    0    0 -0.19388152924E-01 -0.26991223213E-02  0.14841526745E-01  0.24565354694E-01  0.00000000000E+00 0. -1.
     999901    1    3    3    0    0 -0.45913293193E-01 -0.82914794081E-01  0.59440138821E-01  0.88708287306E+00  0.88000000000E+00 0. -1.
        -11    1    4    4    0    0  0.47148306197E-01  0.57470677823E-01 -0.40260579481E-01  0.84540031747E-01  0.51100000000E-03 0.  1.
         11    1    4    4    0    0  0.18153139920E-01  0.28143238579E-01 -0.34021086085E-01  0.47741740501E-01  0.51100000000E-03 0. -1.
</event>
<event>
 8    1  0.1166736E+005  0.1043930E+01  0.7957747E-01            NaN
         13   -1    0    0    0    0  0.00000000000E+00  0.00000000000E+00  0.74505805969E-08  0.10566000000E+00  0.10566000000E+00 0.  1.
     999900   -1    0    0    0    0 -0.00000000000E+00 -0.00000000000E+00 -0.74505805969E-08  0.93827000000E+00  0.93827000000E+00 0.  1.
     999902    2    1    2    0    0 -0.84767394924E-02  0.11516634288E-01 -0.19028520006E-01  0.10201272155E+01  0.10198494807E+01 0.  0.
     999903    2    3    3    0    0 -0.34272265451E-01 -0.12211271834E+00 -0.18244146606E-01  0.12966507237E+00  0.19851396640E-01 0.  0.
         14    1    1    2    0    0  0.84767394924E-02 -0.11516634288E-01  0.19028520006E-01  0.23802784530E-01  0.00000000000E+00 0.  1.
     999901    1    3    3    0    0  0.25795525958E-01  0.13362935263E+00 -0.78437340094E-03  0.89046214310E+00  0.88000000000E+00 0. -1.
        -11    1    4    4    0    0 -0.32087121203E-01 -0.99819309057E-01 -0.83849254206E-02  0.10518576854E+00  0.51100000000E-03 0.  1.
         11    1    4    4    0    0 -0.21851442474E-02 -0.22293409285E-01 -0.98592211849E-02  0.24479303836E-01  0.51100000000E-03 0. -1.
</event>
<event>
 8    1  0.1166736E+005  0.1043930E+01  0.7957747E-01            NaN
         13   -1    0    0    0    0  0.00000000000E+00  0.00000000000E+00  0.74505805969E-08  0.10566000000E+00  0.10566000000E+00 0. -1.
     999900   -1    0    0    0    0 -0.00000000000E+00 -0.00000000000E+00 -0.74505805969E-08  0.93827000000E+00  0.93827000000E+00 0.  1.
     999902    2    1    2    0    0 -0.13099697270E-01  0.15655634423E-01 -0.12584870030E-01  0.10199491762E+01  0.10196672212E+01 0.  0.
     999903    2    3    3    0    0 -0.66869132041E-01 -0.52192415676E-01 -0.98274843056E-01  0.13155890073E+00  0.21313622650E-01 0.  0.
         14    1    1    2    0    0  0.13099697270E-01 -0.15655634423E-01  0.12584870030E-01  0.23980823827E-01  0.00000000000E+00 0.  1.
     999901    1    3    3    0    0  0.53769434771E-01  0.67848050099E-01  0.85689973026E-01  0.88839027544E+00  0.88000000000E+00 0. -1.
        -11    1    4    4    0    0 -0.37698174888E-01 -0.35925683117E-01 -0.45788182438E-01  0.69344256210E-01  0.51100000000E-03 0.  1.
         11    1    4    4    0    0 -0.29170957153E-01 -0.16266732559E-01 -0.52486660618E-01  0.62214644524E-01  0.51100000000E-03 0. -1.
</event>
<event>
 8    1  0.1166736E+005  0.1043930E+01  0.7957747E-01            NaN
         13   -1    0    0    0    0  0.00000000000E+00  0.00000000000E+00  0.74505805969E-08  0.10566000000E+00  0.10566000000E+00 0. -1.
     999900   -1    0    0    0    0 -0.00000000000E+00 -0.00000000000E+00 -0.74505805969E-08  0.93827000000E+00  0.93827000000E+00 0. -1.
     999902    2    1    2    0    0  0.15235009124E-01  0.66157328539E-02  0.12204660653E-01  0.10233186641E+01  0.10231110698E+01 0.  0.
     999903    2    3    3    0    0  0.73438260978E-01 -0.11008182012E+00  0.21499322751E-02  0.13365185294E+00  0.18628212161E-01 0.  0.
         14    1    1    2    0    0 -0.15235009124E-01 -0.66157328539E-02 -0.12204660653E-01  0.20611335858E-01  0.00000000000E+00 0. -1.
     999901    1    3    3    0    0 -0.58203251854E-01  0.11669755297E+00  0.10054728378E-01  0.88966681120E+00  0.88000000000E+00 0. -1.
        -11    1    4    4    0    0  0.53195231686E-01 -0.74590564574E-01  0.95917438494E-02  0.92118118026E-01  0.51100000000E-03 0.  1.
         11    1    4    4    0    0  0.20243029293E-01 -0.35491255546E-01 -0.74418115743E-02  0.41533734911E-01  0.51100000000E-03 0. -1.
</event>
<event>
 8    1  0.1166736E+005  0.1043930E+01  0.7957747E-01            NaN
         13   -1    0    0    0    0  0.00000000000E+00  0.00000000000E+00  0.74505805969E-08  0.10566000000E+00  0.10566000000E+00 0.  1.
     999900   -1    0    0    0    0 -0.00000000000E+00 -0.00000000000E+00 -0.74505805969E-08  0.93827000000E+00  0.93827000000E+00 0. -1.
     999902    2    1    2    0    0 -0.13486198239E-01  0.19241477809E-02  0.11509047017E-01  0.10260963786E+01  0.10259413922E+01 0.  0.
     999903    2    3    3    0    0  0.90488244463E-02  0.13033160673E-03 -0.13230430452E+00  0.13413599549E+00  0.20152867851E-01 0.  0.
         14    1    1    2    0    0  0.13486198239E-01 -0.19241477809E-02 -0.11509047017E-01  0.17833621361E-01  0.00000000000E+00 0. -1.
     999901    1    3    3    0    0 -0.22535022685E-01  0.17938161741E-02  0.14381335153E+00  0.89196038315E+00  0.88000000000E+00 0.  1.
        -11    1    4    4    0    0  0.10368340988E-01  0.84660941967E-02 -0.71153866714E-01  0.72403805944E-01  0.51100000000E-03 0.  1.
         11    1    4    4    0    0 -0.13195165421E-02 -0.83357625899E-02 -0.61150437803E-01  0.61732189548E-01  0.51100000000E-03 0. -1.
</event>
<event>
 8    1  0.1166736E+005  0.1043930E+01  0.7957747E-01            NaN
         13   -1    0    0    0    0  0.00000000000E+00  0.00000000000E+00  0.74505805969E-08  0.10566000000E+00  0.10566000000E+00 0.  1.
     999900   -1    0    0    0    0 -0.00000000000E+00 -0.00000000000E+00 -0.74505805969E-08  0.93827000000E+00  0.93827000000E+00 0. -1.
     999902    2    1    2    0    0  0.79274805341E-02  0.18164252732E-01  0.13168925295E-01  0.10201349245E+01  0.10198573717E+01 0.  0.
     999903    2    3    3    0    0  0.80466532281E-01  0.47731137557E-01 -0.89843424929E-01  0.13067010844E+00  0.15802275966E-01 0.  0.
         14    1    1    2    0    0 -0.79274805341E-02 -0.18164252732E-01 -0.13168925295E-01  0.23795075507E-01  0.00000000000E+00 0. -1.
     999901    1    3    3    0    0 -0.72539051747E-01 -0.29566884825E-01  0.10301235022E+00  0.88946481606E+00  0.88000000000E+00 0. -1.
        -11    1    4    4    0    0  0.45139236757E-01  0.21744924161E-01 -0.56899922340E-01  0.75817245433E-01  0.51100000000E-03 0.  1.
         11    1    4    4    0    0  0.35327295523E-01  0.25986213396E-01 -0.32943502589E-01  0.54852863002E-01  0.51100000000E-03 0. -1.
</event>
<event>
 8    1  0.1166736E+005  0.1043930E+01  0.7957747E-01            NaN
         13   -1    0    0    0    0  0.00000000000E+00  0.00000000000E+00  0.74505805969E-08  0.10566000000E+00  0.10566000000E+00 0.  1.
     999900   -1    0    0    0    0 -0.00000000000E+00 -0.00000000000E+00 -0.74505805969E-08  0.93827000000E+00  0.93827000000E+00 0. -1.
     999902    2    1    2    0    0  0.20017666808E-01 -0.18128547846E-01  0.66250648138E-02  0.10161227579E+01  0.10157421997E+01 0.  0.
     999903    2    3    3    0    0 -0.26880477984E-01 -0.75792889171E-01 -0.96399507688E-01  0.12700033953E+00  0.19211949737E-01 0.  0.
         14    1    1    2    0    0 -0.20017666808E-01  0.18128547846E-01 -0.66250648138E-02  0.27807242136E-01  0.00000000000E+00 0. -1.
     999901    1    3    3    0    0  0.46898144792E-01  0.57664341326E-01  0.10302457250E+00  0.88912241833E+00  0.88000000000E+00 0.  1.
        -11    1    4    4    0    0 -0.11772034325E-01 -0.50340418928E-01 -0.71988666880E-01  0.88630513087E-01  0.51100000000E-03 0.  1.
         11    1    4    4    0    0 -0.15108443659E-01 -0.25452470244E-01 -0.24410840807E-01  0.38369826442E-01  0.51100000000E-03 0. -1.
</event>
<event>
 8    1  0.1166736E+005  0.1043930E+01  0.7957747E-01            NaN
         13   -1    0    0    0    0  0.00000000000E+00  0.00000000000E+00  0.74505805969E-08  0.10566000000E+00  0.10566000000E+00 0.  1.
     999900   -1    0    0    0    0 -0.00000000000E+00 -0.00000000000E+00 -0.74505805969E-08  0.93827000000E+00  0.93827000000E+00 0. -1.
     999902    2    1    2    0    0  0.15581509081E-01  0.16877578186E-01 -0.43591816109E-02  0.10205496977E+01  0.10202818468E+01 0.  0.
     999903    2    3    3    0    0 -0.75159817894E-01 -0.60593240151E-01  0.82061914985E-01  0.12830291456E+00  0.20172779067E-01 0.  0.
         14    1    1    2    0    0 -0.15581509081E-01 -0.16877578186E-01  0.43591816109E-02  0.23380302286E-01  0.00000000000E+00 0. -1.
     999901    1    3    3    0    0  0.90741326975E-01  0.77470818336E-01 -0.86421096596E-01  0.89224678316E+00  0.88000000000E+00 0. -1.
        -11    1    4    4    0    0 -0.46826010087E-01 -0.25526393154E-01  0.48602641679E-01  0.72157812241E-01  0.51100000000E-03 0.  1.
         11    1    4    4    0    0 -0.28333807807E-01 -0.35066846996E-01  0.33459273306E-01  0.56145102318E-01  0.51100000000E-03 0. -1.
</event>
<event>
 8    1  0.1166736E+005  0.1043930E+01  0.7957747E-01            NaN
         13   -1    0    0    0    0  0.00000000000E+00  0.00000000000E+00  0.74505805969E-08  0.10566000000E+00  0.10566000000E+00 0.  1.
     999900   -1    0    0    0    0 -0.00000000000E+00 -0.00000000000E+00 -0.74505805969E-08  0.93827000000E+00  0.93827000000E+00 0.  1.
     999902    2    1    2    0    0  0.43433879347E-02 -0.22934076509E-01 -0.44972614726E-02  0.10201589621E+01  0.10198819763E+01 0.  0.
     999903    2    3    3    0    0 -0.34079476045E-01 -0.65482130226E-01  0.10664421678E+00  0.13131753552E+00  0.20542300136E-01 0.  0.
         14    1    1    2    0    0 -0.43433879347E-02  0.22934076509E-01  0.44972614726E-02  0.23771037942E-01  0.00000000000E+00 0. -1.
     999901    1    3    3    0    0  0.38422863980E-01  0.42548053717E-01 -0.11114147825E+00  0.88884142654E+00  0.88000000000E+00 0.  1.
        -11    1    4    4    0    0 -0.35775270342E-01 -0.52582643718E-01  0.88074402695E-01  0.10863777391E+00  0.51100000000E-03 0.  1.
         11    1    4    4    0    0  0.16957942973E-02 -0.12899486508E-01  0.18569814083E-01  0.22679761607E-01  0.51100000000E-03 0. -1.
</event>
<event>
 8    1  0.1166736E+005  0.1043930E+01  0.7957747E-01            NaN
         13   -1    0    0    0    0  0.00000000000E+00  0.00000000000E+00  0.74505805969E-08  0.10566000000E+00  0.10566000000E+00 0. -1.
     999900   -1    0    0    0    0 -0.00000000000E+00 -0.00000000000E+00 -0.74505805969E-08  0.93827000000E+00  0.93827000000E+00 0. -1.
     999902    2    1    2    0    0 -0.12857523050E-01  0.13914704453E-01  0.76426192906E-02  0.10235009881E+01  0.10232970869E+01 0.  0.
     999903    2    3    3    0    0 -0.79701323657E-01 -0.36559895807E-01 -0.98247268087E-01  0.13320415712E+00  0.20047314340E-01 0.  0.
         14    1    1    2    0    0  0.12857523050E-01 -0.13914704453E-01 -0.76426192906E-02  0.20429011934E-01  0.00000000000E+00 0.  1.
     999901    1    3    3    0    0  0.66843800607E-01  0.50474600259E-01  0.10588988738E+00  0.89029683095E+00  0.88000000000E+00 0.  1.
        -11    1    4    4    0    0 -0.54318028284E-01 -0.15885549923E-01 -0.54584195971E-01  0.78628839899E-01  0.51100000000E-03 0. -1.
         11    1    4    4    0    0 -0.25383295373E-01 -0.20674345884E-01 -0.43663072116E-01  0.54575317217E-01  0.51100000000E-03 0.  1.
</event>
<event>
 8    1  0.1166736E+005  0.1043930E+01  0.7957747E-01            NaN
         13   -1    0    0    0    0  0.00000000000E+00  0.00000000000E+00  0.74505805969E-08  0.10566000000E+00  0.10566000000E+00 0. -1.
     999900   -1    0    0    0    0 -0.00000000000E+00 -0.00000000000E+00 -0.74505805969E-08  0.93827000000E+00  0.93827000000E+00 0.  1.
     999902    2    1    2    0    0 -0.14505471373E-01 -0.13280986569E-01  0.13211988768E-01  0.10202371751E+01  0.10199620304E+01 0.  0.
     999903    2    3    3    0    0  0.13327425709E-01 -0.54102302797E-01  0.11868604723E+00  0.13256278265E+00  0.19540575545E-01 0.  0.
         14    1    1    2    0    0  0.14505471373E-01  0.13280986569E-01 -0.13211988768E-01  0.23692824889E-01  0.00000000000E+00 0.  1.
     999901    1    3    3    0    0 -0.27832897082E-01  0.40821316228E-01 -0.10547405847E+00  0.88767439246E+00  0.88000000000E+00 0.  1.
        -11    1    4    4    0    0  0.20640761520E-02 -0.41654617410E-01  0.76021364884E-01  0.86711456001E-01  0.51100000000E-03 0. -1.
         11    1    4    4    0    0  0.11263349557E-01 -0.12447685387E-01  0.42664682349E-01  0.45851326651E-01  0.51100000000E-03 0.  1.
</event>
<event>
 8    1  0.1166736E+005  0.1043930E+01  0.7957747E-01            NaN
         13   -1    0    0    0    0  0.00000000000E+00  0.00000000000E+00  0.74505805969E-08  0.10566000000E+00  0.10566000000E+00 0.  1.
     999900   -1    0    0    0    0 -0.00000000000E+00 -0.00000000000E+00 -0.74505805969E-08  0.93827000000E+00  0.93827000000E+00 0.  1.
     999902    2    1    2    0    0  0.20188797842E-01 -0.75366609563E-02  0.10348023017E-01  0.10200245530E+01  0.10197443887E+01 0.  0.
     999903    2    3    3    0    0  0.44164629307E-01  0.11796220461E+00 -0.26519742821E-01  0.13003352050E+00  0.18434302126E-01 0.  0.
         14    1    1    2    0    0 -0.20188797842E-01  0.75366609563E-02 -0.10348023017E-01  0.23905447016E-01  0.00000000000E+00 0.  1.
     999901    1    3    3    0    0 -0.23975831466E-01 -0.12549886557E+00  0.36867765838E-01  0.88999103249E+00  0.88000000000E+00 0. -1.
        -11    1    4    4    0    0  0.13983291446E-01  0.63164317533E-01 -0.15172515957E-01  0.66450957936E-01  0.51100000000E-03 0.  1.
         11    1    4    4    0    0  0.30181337862E-01  0.54797887076E-01 -0.11347226865E-01  0.63582562560E-01  0.51100000000E-03 0. -1.
</event>
<event>
 8    1  0.1166736E+005  0.1043930E+01  0.7957747E-01            NaN
         13   -1    0    0    0    0  0.00000000000E+00  0.00000000000E+00  0.74505805969E-08  0.10566000000E+00  0.10566000000E+00 0. -1.
     999900   -1    0    0    0    0 -0.00000000000E+00 -0.00000000000E+00 -0.74505805969E-08  0.93827000000E+00  0.93827000000E+00 0. -1.
     999902    2    1    2    0    0  0.14891196128E-01 -0.13356673031E-01 -0.15014805561E-01  0.10189181464E+01  0.10186111113E+01 0.  0.
     999903    2    3    3    0    0 -0.53105136585E-01  0.11356001083E+00 -0.77682157131E-02  0.12718732432E+00  0.20005966674E-01 0.  0.
         14    1    1    2    0    0 -0.14891196128E-01  0.13356673031E-01  0.15014805561E-01  0.25011853642E-01  0.00000000000E+00 0. -1.
     999901    1    3    3    0    0  0.67996332713E-01 -0.12691668386E+00 -0.72465898484E-02  0.89173082204E+00  0.88000000000E+00 0. -1.
        -11    1    4    4    0    0 -0.10569432097E-01  0.23926496457E-01 -0.98369744534E-02  0.27950265025E-01  0.51100000000E-03 0. -1.
         11    1    4    4    0    0 -0.42535704488E-01  0.89633514368E-01  0.20687587404E-02  0.99237059298E-01  0.51100000000E-03 0.  1.
</event>
<event>
 8    1  0.1166736E+005  0.1043930E+01  0.7957747E-01            NaN
         13   -1    0    0    0    0  0.00000000000E+00  0.00000000000E+00  0.74505805969E-08  0.10566000000E+00  0.10566000000E+00 0. -1.
     999900   -1    0    0    0    0 -0.00000000000E+00 -0.00000000000E+00 -0.74505805969E-08  0.93827000000E+00  0.93827000000E+00 0.  1.
     999902    2    1    2    0    0 -0.19928204184E-02  0.16179334120E-01 -0.17219096098E-01  0.10202184109E+01  0.10199428251E+01 0.  0.
     999903    2    3    3    0    0 -0.25650492998E-01  0.10060423019E+00  0.77175600608E-01  0.13083794830E+00  0.19578980106E-01 0.  0.
         14    1    1    2    0    0  0.19928204184E-02 -0.16179334120E-01  0.17219096098E-01  0.23711589069E-01  0.00000000000E+00 0. -1.
     999901    1    3    3    0    0  0.23657672580E-01 -0.84424896071E-01 -0.94394696706E-01  0.88938046263E+00  0.88000000000E+00 0.  1.
        -11    1    4    4    0    0 -0.79890795724E-02  0.45401795217E-01  0.23088527639E-01  0.51560543353E-01  0.51100000000E-03 0. -1.
         11    1    4    4    0    0 -0.17661413426E-01  0.55202434973E-01  0.54087072969E-01  0.79277404943E-01  0.51100000000E-03 0.  1.
</event>
<event>
 8    1  0.1166736E+005  0.1043930E+01  0.7957747E-01            NaN
         13   -1    0    0    0    0  0.00000000000E+00  0.00000000000E+00  0.74505805969E-08  0.10566000000E+00  0.10566000000E+00 0. -1.
     999900   -1    0    0    0    0 -0.00000000000E+00 -0.00000000000E+00 -0.74505805969E-08  0.93827000000E+00  0.93827000000E+00 0.  1.
     999902    2    1    2    0    0 -0.10226475604E-02 -0.10853969655E-01  0.15303962989E-01  0.10251399561E+01  0.10249677380E+01 0.  0.
     999903    2    3    3    0    0  0.27575870073E-01 -0.73154947198E-01 -0.10705993429E+00  0.13403266160E+00  0.19769925031E-01 0.  0.
         14    1    1    2    0    0  0.10226475604E-02  0.10853969655E-01 -0.15303962989E-01  0.18790043865E-01  0.00000000000E+00 0.  1.
     999901    1    3    3    0    0 -0.28598517634E-01  0.62300977543E-01  0.12236389728E+00  0.89110729453E+00  0.88000000000E+00 0. -1.
        -11    1    4    4    0    0  0.60623942698E-02 -0.37274928931E-02 -0.16010053660E-01  0.17527970982E-01  0.51100000000E-03 0.  1.
         11    1    4    4    0    0  0.21513475803E-01 -0.69427454305E-01 -0.91049880631E-01  0.11650469062E+00  0.51100000000E-03 0. -1.
</event>
<event>
 8    1  0.1166736E+005  0.1043930E+01  0.7957747E-01            NaN
         13   -1    0    0    0    0  0.00000000000E+00  0.00000000000E+00  0.74505805969E-08  0.10566000000E+00  0.10566000000E+00 0.  1.
     999900   -1    0    0    0    0 -0.00000000000E+00 -0.00000000000E+00 -0.74505805969E-08  0.93827000000E+00  0.93827000000E+00 0. -1.
     999902    2    1    2    0    0  0.20622349354E-01  0.74678536748E-02  0.83414797481E-02  0.10204644845E+01  0.10201946549E+01 0.  0.
     999903    2    3    3    0    0 -0.55320278772E-01 -0.67292313893E-01 -0.92114513752E-01  0.12836147925E+00  0.20074784153E-01 0.  0.
         14    1    1    2    0    0 -0.20622349354E-01 -0.74678536748E-02 -0.83414797481E-02  0.23465515459E-01  0.00000000000E+00 0. -1.
     999901    1    3    3    0    0  0.75942628125E-01  0.74760167567E-01  0.10045599350E+00  0.89210300529E+00  0.88000000000E+00 0.  1.
        -11    1    4    4    0    0 -0.21915057652E-01 -0.13162506284E-01 -0.22464370863E-01  0.34035722452E-01  0.51100000000E-03 0.  1.
         11    1    4    4    0    0 -0.33405221120E-01 -0.54129807609E-01 -0.69650142889E-01  0.94325756797E-01  0.51100000000E-03 0. -1.
</event>
<event>
 8    1  0.1166736E+005  0.1043930E+01  0.7957747E-01            NaN
         13   -1    0    0    0    0  0.00000000000E+00  0.00000000000E+00  0.74505805969E-08  0.10566000000E+00  0.10566000000E+00 0.  1.
     999900   -1    0    0    0    0 -0.00000000000E+00 -0.00000000000E+00 -0.74505805969E-08  0.93827000000E+00  0.93827000000E+00 0. -1.
     999902    2    1    2    0    0 -0.24235717817E-01 -0.39143953888E-02 -0.11706974319E-01  0.10167317325E+01  0.10163678813E+01 0.  0.
     999903    2    3    3    0    0  0.53466466154E-01  0.10456955895E+00 -0.41621285257E-01  0.12616940239E+00  0.19822488511E-01 0.  0.
         14    1    1    2    0    0  0.24235717817E-01  0.39143953888E-02  0.11706974319E-01  0.27198267538E-01  0.00000000000E+00 0.  1.
     999901    1    3    3    0    0 -0.77702183972E-01 -0.10848395434E+00  0.29914310939E-01  0.89056233007E+00  0.88000000000E+00 0.  1.
        -11    1    4    4    0    0  0.34204203930E-01  0.46024532602E-01 -0.22973739765E-01  0.61775715354E-01  0.51100000000E-03 0.  1.
         11    1    4    4    0    0  0.19262262225E-01  0.58545026350E-01 -0.18647545493E-01  0.64393687037E-01  0.51100000000E-03 0. -1.
</event>
<event>
 8    1  0.1166736E+005  0.1043930E+01  0.7957747E-01            NaN
         13   -1    0    0    0    0  0.00000000000E+00  0.00000000000E+00  0.74505805969E-08  0.10566000000E+00  0.10566000000E+00 0. -1.
     999900   -1    0    0    0    0 -0.00000000000E+00 -0.00000000000E+00 -0.74505805969E-08  0.93827000000E+00  0.93827000000E+00 0. -1.
     999902    2    1    2    0    0 -0.12656101493E-01 -0.20606909035E-01  0.14158992778E-01  0.10159068189E+01  0.10155202440E+01 0.  0.
     999903    2    3    3    0    0  0.54905365621E-02  0.31587286653E-01 -0.11849680952E+00  0.12425044086E+00  0.19203528786E-01 0.  0.
         14    1    1    2    0    0  0.12656101493E-01  0.20606909035E-01 -0.14158992778E-01  0.28023181145E-01  0.00000000000E+00 0. -1.
     999901    1    3    3    0    0 -0.18146638055E-01 -0.52194195688E-01  0.13265580230E+00  0.89165637800E+00  0.88000000000E+00 0.  1.
        -11    1    4    4    0    0 -0.34690103323E-02  0.24444268199E-01 -0.94189570668E-01  0.97372956328E-01  0.51100000000E-03 0.  1.
         11    1    4    4    0    0  0.89595468944E-02  0.71430184542E-02 -0.24307238851E-01  0.26877484532E-01  0.51100000000E-03 0. -1.
</event>
<event>
 8    1  0.1166736E+005  0.1043930E+01  0.7957747E-01            NaN
         13   -1    0    0    0    0  0.00000000000E+00  0.00000000000E+00  0.74505805969E-08  0.10566000000E+00  0.10566000000E+00 0. -1.
     999900   -1    0    0    0    0 -0.00000000000E+00 -0.00000000000E+00 -0.74505805969E-08  0.93827000000E+00  0.93827000000E+00 0.  1.
     999902    2    1    2    0    0 -0.20734149036E-01 -0.12071322427E-01  0.29629870439E-02  0.10197556116E+01  0.10194690316E+01 0.  0.
     999903    2    3    3    0    0  0.47512279386E-01  0.10499555720E+00  0.51910637586E-01  0.12803923194E+00  0.20441303672E-01 0.  0.
         14    1    1    2    0    0  0.20734149036E-01  0.12071322427E-01 -0.29629870439E-02  0.24174388382E-01  0.00000000000E+00 0. -1.
     999901    1    3    3    0    0 -0.68246428422E-01 -0.11706687963E+00 -0.48947650542E-01  0.89171637968E+00  0.88000000000E+00 0.  1.
        -11    1    4    4    0    0  0.47147395609E-01  0.96826077466E-01  0.43079614684E-01  0.11599258818E+00  0.51100000000E-03 0.  1.
         11    1    4    4    0    0  0.36488377653E-03  0.81694797361E-02  0.88310229022E-02  0.12046643758E-01  0.51100000000E-03 0. -1.
</event>
<event>
 8    1  0.1166736E+005  0.1043930E+01  0.7957747E-01            NaN
         13   -1    0    0    0    0  0.00000000000E+00  0.00000000000E+00  0.74505805969E-08  0.10566000000E+00  0.10566000000E+00 0.  1.
     999900   -1    0    0    0    0 -0.00000000000E+00 -0.00000000000E+00 -0.74505805969E-08  0.93827000000E+00  0.93827000000E+00 0.  1.
     999902    2    1    2    0    0 -0.18366557381E-01 -0.36362956171E-02  0.17767744594E-01  0.10181182619E+01  0.10177910146E+01 0.  0.
     999903    2    3    3    0    0  0.74762161996E-01 -0.10018478670E+00  0.18967820045E-01  0.12795197986E+00  0.19635646117E-01 0.  0.
         14    1    1    2    0    0  0.18366557381E-01  0.36362956171E-02 -0.17767744594E-01  0.25811738101E-01  0.00000000000E+00 0. -1.
     999901    1    3    3    0    0 -0.93128719378E-01  0.96548491088E-01 -0.12000754513E-02  0.89016628204E+00  0.88000000000E+00 0.  1.
        -11    1    4    4    0    0  0.52635608728E-01 -0.61502769845E-01  0.44275647903E-02  0.81073808691E-01  0.51100000000E-03 0. -1.
         11    1    4    4    0    0  0.22126553269E-01 -0.38682016860E-01  0.14540255255E-01  0.46878171165E-01  0.51100000000E-03 0.  1.
</event>
<event>
 8    1  0.1166736E+005  0.1043930E+01  0.7957747E-01            NaN
         13   -1    0    0    0    0  0.00000000000E+00  0.00000000000E+00  0.74505805969E-08  0.10566000000E+00  0.10566000000E+00 0.  1.
     999900   -1    0    0    0    0 -0.00000000000E+00 -0.00000000000E+00 -0.74505805969E-08  0.93827000000E+00  0.93827000000E+00 0.  1.
     999902    2    1    2    0    0  0.59945773353E-02 -0.15004369599E-01 -0.22047229411E-01  0.10165960213E+01  0.10162284803E+01 0.  0.
     999903    2    3    3    0    0  0.33869001993E-01 -0.83401961669E-01 -0.92981713777E-01  0.13065758374E+00  0.17966874674E-01 0.  0.
         14    1    1    2    0    0 -0.59945773353E-02  0.15004369599E-01  0.22047229411E-01  0.27333978656E-01  0.00000000000E+00 0.  1.
     999901    1    3    3    0    0 -0.27874424657E-01  0.68397592070E-01  0.70934484367E-01  0.88593843760E+00  0.88000000000E+00 0. -1.
        -11    1    4    4    0    0  0.17159521644E-01 -0.61932560849E-01 -0.60255915288E-01  0.88097262866E-01  0.51100000000E-03 0.  1.
         11    1    4    4    0    0  0.16709480349E-01 -0.21469400821E-01 -0.32725798489E-01  0.42560320874E-01  0.51100000000E-03 0. -1.
</event>
<event>
 8    1  0.1166736E+005  0.1043930E+01  0.7957747E-01            NaN
         13   -1    0    0    0    0  0.00000000000E+00  0.00000000000E+00  0.74505805969E-08  0.10566000000E+00  0.10566000000E+00 0. -1.
     999900   -1    0    0    0    0 -0.00000000000E+00 -0.00000000000E+00 -0.74505805969E-08  0.93827000000E+00  0.93827000000E+00 0.  1.
     999902    2    1    2    0    0  0.10002934505E-01 -0.20099836817E-01 -0.68520006604E-02  0.10204563541E+01  0.10201863352E+01 0.  0.
     999903    2    3    3    0    0  0.36139827870E-01  0.68366820994E-01 -0.10308596311E+00  0.13041676944E+00  0.20042669223E-01 0.  0.
         14    1    1    2    0    0 -0.10002934505E-01  0.20099836817E-01  0.68520006604E-02  0.23473645900E-01  0.00000000000E+00 0. -1.
     999901    1    3    3    0    0 -0.26136893365E-01 -0.88466657812E-01  0.96233962445E-01  0.89003958466E+00  0.88000000000E+00 0. -1.
        -11    1    4    4    0    0  0.12372844624E-01  0.38470682666E-01 -0.64555467538E-01  0.76162656328E-01  0.51100000000E-03 0. -1.
         11    1    4    4    0    0  0.23766983245E-01  0.29896138328E-01 -0.38530495568E-01  0.54254113109E-01  0.51100000000E-03 0.  1.
</event>
<event>
 8    1  0.1166736E+005  0.1043930E+01  0.7957747E-01            NaN
         13   -1    0    0    0    0  0.00000000000E+00  0.00000000000E+00  0.74505805969E-08  0.10566000000E+00  0.10566000000E+00 0. -1.
     999900   -1    0    0    0    0 -0.00000000000E+00 -0.00000000000E+00 -0.74505805969E-08  0.93827000000E+00  0.93827000000E+00 0. -1.
     999902    2    1    2    0    0 -0.17953709001E-01 -0.13520906131E-01 -0.94555847210E-02  0.10195464266E+01  0.10192548049E+01 0.  0.
     999903    2    3    3    0    0  0.94916423715E-01 -0.22503557521E-01 -0.82601941785E-01  0.12928200271E+00  0.19370540682E-01 0.  0.
         14    1    1    2    0    0  0.17953709001E-01  0.13520906131E-01  0.94555847210E-02  0.24383573403E-01  0.00000000000E+00 0. -1.
     999901    1    3    3    0    0 -0.11287013272E+00  0.89826513897E-02  0.73146357064E-01  0.89026442389E+00  0.88000000000E+00 0.  1.
        -11    1    4    4    0    0  0.70320803775E-01 -0.16893274629E-01 -0.71549823522E-01  0.10173512932E+00  0.51100000000E-03 0.  1.
         11    1    4    4    0    0  0.24595619940E-01 -0.56102828915E-02 -0.11052118263E-01  0.27546873388E-01  0.51100000000E-03 0. -1.
</event>
<event>
 8    1  0.1166736E+005  0.1043930E+01  0.7957747E-01            NaN
         13   -1    0    0    0    0  0.00000000000E+00  0.00000000000E+00  0.74505805969E-08  0.10566000000E+00  0.10566000000E+00 0.  1.
     999900   -1    0    0    0    0 -0.00000000000E+00 -0.00000000000E+00 -0.74505805969E-08  0.93827000000E+00  0.93827000000E+00 0.  1.
     999902    2    1    2    0    0  0.11806304853E-01  0.92194748500E-03  0.19406580471E-01  0.10211955726E+01  0.10209424780E+01 0.  0.
     999903    2    3    3    0    0 -0.70278034765E-01  0.55098887294E-01 -0.90742118356E-01  0.12889197215E+00  0.20102708477E-01 0.  0.
         14    1    1    2    0    0 -0.11806304853E-01 -0.92194748500E-03 -0.19406580471E-01  0.22734427352E-01  0.00000000000E+00 0. -1.
     999901    1    3    3    0    0  0.82084339618E-01 -0.54176939809E-01  0.11014869883E+00  0.89230360050E+00  0.88000000000E+00 0.  1.
        -11    1    4    4    0    0 -0.99449260719E-02  0.13079875271E-01 -0.26860332423E-01  0.31491638105E-01  0.51100000000E-03 0.  1.
         11    1    4    4    0    0 -0.60333108694E-01  0.42019012023E-01 -0.63881785933E-01  0.97400334040E-01  0.51100000000E-03 0. -1.
</event>
<event>
 8    1  0.1166736E+005  0.1043930E+01  0.7957747E-01            NaN
         13   -1    0    0    0    0  0.00000000000E+00  0.00000000000E+00  0.74505805969E-08  0.10566000000E+00  0.10566000000E+00 0. -1.
     999900   -1    0    0    0    0 -0.00000000000E+00 -0.00000000000E+00 -0.74505805969E-08  0.93827000000E+00  0.93827000000E+00 0. -1.
     999902    2    1    2    0    0  0.10723175766E-01 -0.16547990426E-01 -0.13964511657E-01  0.10197674242E+01  0.10194811275E+01 0.  0.
     999903    2    3    3    0    0 -0.12538897086E-02  0.93719602226E-01  0.83809818836E-01  0.12743216665E+00  0.20734880818E-01 0.  0.
         14    1    1    2    0    0 -0.10723175766E-01  0.16547990426E-01  0.13964511657E-01  0.24162575845E-01  0.00000000000E+00 0. -1.
     999901    1    3    3    0    0  0.11977065475E-01 -0.11026759265E+00 -0.97774330493E-01  0.89233525751E+00  0.88000000000E+00 0. -1.
        -11    1    4    4    0    0  0.84847495447E-02  0.32202221667E-01  0.23744300618E-01  0.40902652579E-01  0.51100000000E-03 0. -1.
         11    1    4    4    0    0 -0.97386392533E-02  0.61517380559E-01  0.60065518218E-01  0.86529514069E-01  0.51100000000E-03 0.  1.
</event>
<event>
 8    1  0.1166736E+005  0.1043930E+01  0.7957747E-01            NaN
         13   -1    0    0    0    0  0.00000000000E+00  0.00000000000E+00  0.74505805969E-08  0.10566000000E+00  0.10566000000E+00 0. -1.
     999900   -1    0    0    0    0 -0.00000000000E+00 -0.00000000000E+00 -0.74505805969E-08  0.93827000000E+00  0.93827000000E+00 0. -1.
     999902    2    1    2    0    0 -0.38141004501E-02 -0.57873823199E-03  0.23391485189E-01  0.10202225354E+01  0.10199470466E+01 0.  0.
     999903    2    3    3    0    0 -0.58498081612E-01 -0.57589768134E-01  0.10297944499E+00  0.13310651213E+00  0.19338317793E-01 0.  0.
         14    1    1    2    0    0  0.38141004501E-02  0.57873823199E-03 -0.23391485189E-01  0.23707464637E-01  0.00000000000E+00 0.  1.
     999901    1    3    3    0    0  0.54683981162E-01  0.57011029902E-01 -0.79587959804E-01  0.88711602323E+00  0.88000000000E+00 0. -1.
        -11    1    4    4    0    0  0.60169941587E-03 -0.22992350364E-02  0.77980419503E-02  0.81681762468E-02  0.51100000000E-03 0.  1.
         11    1    4    4    0    0 -0.59099781028E-01 -0.55290533098E-01  0.95181403042E-01  0.12493833589E+00  0.51100000000E-03 0. -1.
</event>
<event>
 8    1  0.1166736E+005  0.1043930E+01  0.7957747E-01            NaN
         13   -1    0    0    0    0  0.00000000000E+00  0.00000000000E+00  0.74505805969E-08  0.10566000000E+00  0.10566000000E+00 0.  1.
     999900   -1    0    0    0    0 -0.00000000000E+00 -0.00000000000E+00 -0.74505805969E-08  0.93827000000E+00  0.93827000000E+00 0. -1.
     999902    2    1    2    0    0  0.81656580659E-02  0.15572278240E-01 -0.14570769471E-01  0.10210940384E+01  0.10208386523E+01 0.  0.
     999903    2    3    3    0    0  0.85560923602E-01 -0.80207839645E-01 -0.55629192572E-01  0.13157189011E+00  0.21507812841E-01 0.  0.
         14    1    1    2    0    0 -0.81656580659E-02 -0.15572278240E-01  0.14570769471E-01  0.22835961644E-01  0.00000000000E+00 0.  1.
     999901    1    3    3    0    0 -0.77395265536E-01  0.95780117885E-01  0.41058423101E-01  0.88952214824E+00  0.88000000000E+00 0. -1.
        -11    1    4    4    0    0  0.56582768999E-01 -0.49568340368E-01 -0.24368087861E-01  0.79073983973E-01  0.51100000000E-03 0. -1.
         11    1    4    4    0    0  0.28978154603E-01 -0.30639499277E-01 -0.31261104711E-01  0.52497906139E-01  0.51100000000E-03 0.  1.
</event>
<event>
 7    1  0.1166736E+005  0.1043930E+01  0.7957747E-01            NaN
         13   -1    0    0    0    0  0.00000000000E+00  0.00000000000E+00  0.74505805969E-08  0.10566000000E+00  0.10566000000E+00 0.  1.
     999900   -1    0    0    0    0 -0.00000000000E+00 -0.00000000000E+00 -0.74505805969E-08  0.93827000000E+00  0.93827000000E+00 0. -1.
     999902    2    1    2    0    0  0.22728640543E-01  0.43808582485E-02 -0.60526835097E-02  0.10200047414E+01  0.10197241071E+01 0.  0.
         14    1    1    2    0    0 -0.22728640543E-01 -0.43808582485E-02  0.60526835097E-02  0.23925258569E-01  0.00000000000E+00 0. -1.
     999901    1    3    3    0    0  0.98059177612E-03  0.10352251760E+00 -0.78890434822E-01  0.88957381589E+00  0.88000000000E+00 0. -1.
        -11    1    3    3    0    0  0.21399873633E-01 -0.82872980433E-01  0.41514491326E-01  0.95129383412E-01  0.51100000000E-03 0.  1.
         11    1    3    3    0    0  0.34817513379E-03 -0.16268678915E-01  0.31323259986E-01  0.35301542130E-01  0.51100000000E-03 0. -1.
</event>
<event>
 8    1  0.1166736E+005  0.1043930E+01  0.7957747E-01            NaN
         13   -1    0    0    0    0  0.00000000000E+00  0.00000000000E+00  0.74505805969E-08  0.10566000000E+00  0.10566000000E+00 0.  1.
     999900   -1    0    0    0    0 -0.00000000000E+00 -0.00000000000E+00 -0.74505805969E-08  0.93827000000E+00  0.93827000000E+00 0.  1.
     999902    2    1    2    0    0 -0.46029712685E-02 -0.64453141276E-02 -0.21558724513E-01  0.10209624572E+01  0.10207040859E+01 0.  0.
     999903    2    3    3    0    0 -0.84008877150E-02  0.25764041294E-01  0.12431068128E+00  0.12836526347E+00  0.17033339258E-01 0.  0.
         14    1    1    2    0    0  0.46029712685E-02  0.64453141276E-02  0.21558724513E-01  0.22967542780E-01  0.00000000000E+00 0.  1.
     999901    1    3    3    0    0  0.37979164465E-02 -0.32209355421E-01 -0.14586940580E+00  0.89259719375E+00  0.88000000000E+00 0.  1.
        -11    1    4    4    0    0  0.10146761081E-03  0.21446299165E-01  0.99360184088E-01  0.10164969920E+00  0.51100000000E-03 0.  1.
         11    1    4    4    0    0 -0.85023553259E-02  0.43177421282E-02  0.24950497194E-01  0.26715564273E-01  0.51100000000E-03 0. -1.
</event>
<event>
 8    1  0.1166736E+005  0.1043930E+01  0.7957747E-01            NaN
         13   -1    0    0    0    0  0.00000000000E+00  0.00000000000E+00  0.74505805969E-08  0.10566000000E+00  0.10566000000E+00 0. -1.
     999900   -1    0    0    0    0 -0.00000000000E+00 -0.00000000000E+00 -0.74505805969E-08  0.93827000000E+00  0.93827000000E+00 0.  1.
     999902    2    1    2    0    0  0.88666145156E-02  0.20306302596E-01 -0.69557224596E-02  0.10207062007E+01  0.10204419647E+01 0.  0.
     999903    2    3    3    0    0 -0.94782164501E-02  0.55158468137E-01  0.11683678442E+00  0.13116935998E+00  0.20549297065E-01 0.  0.
         14    1    1    2    0    0 -0.88666145156E-02 -0.20306302596E-01  0.69557224596E-02  0.23223799280E-01  0.00000000000E+00 0.  1.
     999901    1    3    3    0    0  0.18344830966E-01 -0.34852165541E-01 -0.12379250688E+00  0.88953684074E+00  0.88000000000E+00 0.  1.
        -11    1    4    4    0    0 -0.81676776964E-02  0.52381376710E-01  0.92355412621E-01  0.10649085851E+00  0.51100000000E-03 0. -1.
         11    1    4    4    0    0 -0.13105387536E-02  0.27770914268E-02  0.24481371802E-01  0.24678501473E-01  0.51100000000E-03 0.  1.
</event>
<event>
 8    1  0.1166736E+005  0.1043930E+01  0.7957747E-01            NaN
         13   -1    0    0    0    0  0.00000000000E+00  0.00000000000E+00  0.74505805969E-08  0.10566000000E+00  0.10566000000E+00 0.  1.
     999900   -1    0    0    0    0 -0.00000000000E+00 -0.00000000000E+00 -0.74505805969E-08  0.93827000000E+00  0.93827000000E+00 0.  1.
     999902    2    1    2    0    0 -0.84829778028E-02 -0.16496408800E-01  0.29147325791E-02  0.10251526711E+01  0.10249806881E+01 0.  0.
     999903    2    3    3    0    0  0.41773208259E-01  0.70926263808E-01  0.10348774388E+00  0.13370253869E+00  0.19776751326E-01 0.  0.
         14    1    1    2    0    0  0.84829778028E-02  0.16496408800E-01 -0.29147325791E-02  0.18777328929E-01  0.00000000000E+00 0. -1.
     999901    1    3    3    0    0 -0.50256186062E-01 -0.87422672608E-01 -0.10057301130E+00  0.89145013238E+00  0.88000000000E+00 0.  1.
        -11    1    4    4    0    0  0.13018404139E-01  0.32528226179E-01  0.31043863938E-01  0.46813961100E-01  0.51100000000E-03 0.  1.
         11    1    4    4    0    0  0.28754804119E-01  0.38398037629E-01  0.72443879939E-01  0.86888577588E-01  0.51100000000E-03 0. -1.
</event>
<event>
 8    1  0.1166736E+005  0.1043930E+01  0.7957747E-01            NaN
         13   -1    0    0    0    0  0.00000000000E+00  0.00000000000E+00  0.74505805969E-08  0.10566000000E+00  0.10566000000E+00 0.  1.
     999900   -1    0    0    0    0 -0.00000000000E+00 -0.00000000000E+00 -0.74505805969E-08  0.93827000000E+00  0.93827000000E+00 0. -1.
     999902    2    1    2    0    0 -0.11538041734E-01  0.16487126324E-01 -0.12221474913E-01  0.10203860795E+01  0.10201144226E+01 0.  0.
     999903    2    3    3    0    0  0.11238831057E+00 -0.16035930060E-01  0.58356432867E-01  0.12831168183E+00  0.13043428600E-01 0.  0.
         14    1    1    2    0    0  0.11538041734E-01 -0.16487126324E-01  0.12221474913E-01  0.23543920458E-01  0.00000000000E+00 0.  1.
     999901    1    3    3    0    0 -0.12392635231E+00  0.32523056383E-01 -0.70577907780E-01  0.89207439772E+00  0.88000000000E+00 0. -1.
        -11    1    4    4    0    0  0.28020688510E-01 -0.46357423827E-03  0.95791291963E-02  0.29620849462E-01  0.51100000000E-03 0. -1.
         11    1    4    4    0    0  0.84367622063E-01 -0.15572355821E-01  0.48777303671E-01  0.98690832365E-01  0.51100000000E-03 0.  1.
</event>
<event>
 8    1  0.1166736E+005  0.1043930E+01  0.7957747E-01            NaN
         13   -1    0    0    0    0  0.00000000000E+00  0.00000000000E+00  0.74505805969E-08  0.10566000000E+00  0.10566000000E+00 0.  1.
     999900   -1    0    0    0    0 -0.00000000000E+00 -0.00000000000E+00 -0.74505805969E-08  0.93827000000E+00  0.93827000000E+00 0.  1.
     999902    2    1    2    0    0 -0.23702666876E-01 -0.12808760000E-02 -0.79150484785E-04  0.10201926176E+01  0.10199164248E+01 0.  0.
     999903    2    3    3    0    0 -0.10588944745E+00 -0.44297112442E-01  0.63940742215E-01  0.13300401858E+00  0.20660135301E-01 0.  0.
         14    1    1    2    0    0  0.23702666876E-01  0.12808760000E-02  0.79150484785E-04  0.23737382441E-01  0.00000000000E+00 0. -1.
     999901    1    3    3    0    0  0.82186780577E-01  0.43016236442E-01 -0.64019892700E-01  0.88718859898E+00  0.88000000000E+00 0.  1.
        -11    1    4    4    0    0 -0.23964221571E-01 -0.62049696061E-02  0.53842823413E-02  0.25338452610E-01  0.51100000000E-03 0. -1.
         11    1    4    4    0    0 -0.81925225881E-01 -0.38092142835E-01  0.58556459874E-01  0.10766556597E+00  0.51100000000E-03 0.  1.
</event>
<event>
 8    1  0.1166736E+005  0.1043930E+01  0.7957747E-01            NaN
         13   -1    0    0    0    0  0.00000000000E+00  0.00000000000E+00  0.74505805969E-08  0.10566000000E+00  0.10566000000E+00 0. -1.
     999900   -1    0    0    0    0 -0.00000000000E+00 -0.00000000000E+00 -0.74505805969E-08  0.93827000000E+00  0.93827000000E+00 0.  1.
     999902    2    1    2    0    0  0.14258134034E-01 -0.58640986205E-02 -0.17684380381E-01  0.10204689824E+01  0.10201992573E+01 0.  0.
     999903    2    3    3    0    0  0.79288939242E-01 -0.82560523722E-02 -0.10547972350E+00  0.13370929151E+00  0.19932493036E-01 0.  0.
         14    1    1    2    0    0 -0.14258134034E-01  0.58640986205E-02  0.17684380381E-01  0.23461017630E-01  0.00000000000E+00 0. -1.
     999901    1    3    3    0    0 -0.65030805207E-01  0.23919537517E-02  0.87795343119E-01  0.88675969086E+00  0.88000000000E+00 0. -1.
        -11    1    4    4    0    0  0.29193710360E-01 -0.50920486821E-02 -0.55241499772E-01  0.62690398806E-01  0.51100000000E-03 0.  1.
         11    1    4    4    0    0  0.50095228881E-01 -0.31640036900E-02 -0.50238223727E-01  0.71018892699E-01  0.51100000000E-03 0. -1.
</event>
<event>
 8    1  0.1166736E+005  0.1043930E+01  0.7957747E-01            NaN
         13   -1    0    0    0    0  0.00000000000E+00  0.00000000000E+00  0.74505805969E-08  0.10566000000E+00  0.10566000000E+00 0. -1.
     999900   -1    0    0    0    0 -0.00000000000E+00 -0.00000000000E+00 -0.74505805969E-08  0.93827000000E+00  0.93827000000E+00 0.  1.
     999902    2    1    2    0    0  0.14600166559E-01  0.19277028763E-02 -0.18349342359E-01  0.10204017347E+01  0.10201304431E+01 0.  0.
     999903    2    3    3    0    0 -0.12218956657E+00 -0.27251583690E-01  0.19956058624E-01  0.12853281745E+00  0.21201459695E-01 0.  0.
         14    1    1    2    0    0 -0.14600166559E-01 -0.19277028763E-02  0.18349342359E-01  0.23528265277E-01  0.00000000000E+00 0. -1.
     999901    1    3    3    0    0  0.13678973313E+00  0.29179286567E-01 -0.38305400982E-01  0.89186891727E+00  0.88000000000E+00 0.  1.
        -11    1    4    4    0    0 -0.15598367059E-01 -0.28638130249E-02  0.99505863971E-02  0.18729275763E-01  0.51100000000E-03 0.  1.
         11    1    4    4    0    0 -0.10659119951E+00 -0.24387770665E-01  0.10005472227E-01  0.10980354169E+00  0.51100000000E-03 0. -1.
</event>
<event>
 8    1  0.1166736E+005  0.1043930E+01  0.7957747E-01            NaN
         13   -1    0    0    0    0  0.00000000000E+00  0.00000000000E+00  0.74505805969E-08  0.10566000000E+00  0.10566000000E+00 0. -1.
     999900   -1    0    0    0    0 -0.00000000000E+00 -0.00000000000E+00 -0.74505805969E-08  0.93827000000E+00  0.93827000000E+00 0.  1.
     999902    2    1    2    0    0 -0.12933073653E-01 -0.31674785393E-02 -0.19615386555E-01  0.10202221805E+01  0.10199466834E+01 0.  0.
     999903    2    3    3    0    0  0.86545008729E-02 -0.11614150970E+00  0.54820746488E-01  0.12962131988E+00  0.15251939519E-01 0.  0.
         14    1    1    2    0    0  0.12933073653E-01  0.31674785393E-02  0.19615386555E-01  0.23707819472E-01  0.00000000000E+00 0. -1.
     999901    1    3    3    0    0 -0.21587574526E-01  0.11297403117E+00 -0.74436133043E-01  0.89060086065E+00  0.88000000000E+00 0.  1.
        -11    1    4    4    0    0  0.72477425722E-02 -0.91679088308E-01  0.36170298685E-01  0.98823765530E-01  0.51100000000E-03 0.  1.
         11    1    4    4    0    0  0.14067583007E-02 -0.24462421396E-01  0.18650447803E-01  0.30797554346E-01  0.51100000000E-03 0. -1.
</event>
<event>
 8    1  0.1166736E+005  0.1043930E+01  0.7957747E-01            NaN
         13   -1    0    0    0    0  0.00000000000E+00  0.00000000000E+00  0.74505805969E-08  0.10566000000E+00  0.10566000000E+00 0.  1.
     999900   -1    0    0    0    0 -0.00000000000E+00 -0.00000000000E+00 -0.74505805969E-08  0.93827000000E+00  0.93827000000E+00 0.  1.
     999902    2    1    2    0    0  0.17327725505E-01 -0.70501347644E-02 -0.15718885595E-01  0.10194956423E+01  0.10192027899E+01 0.  0.
     999903    2    3    3    0    0 -0.10229788063E+00  0.72530546065E-01  0.86100940802E-02  0.12751174691E+00  0.21437709403E-01 0.  0.
         14    1    1    2    0    0 -0.17327725505E-01  0.70501347644E-02  0.15718885595E-01  0.24434357690E-01  0.00000000000E+00 0.  1.
     999901    1    3    3    0    0  0.11962560614E+00 -0.79580680829E-01 -0.24328979675E-01  0.89198389540E+00  0.88000000000E+00 0.  1.
        -11    1    4    4    0    0 -0.48011487819E-01  0.25769041245E-01 -0.44738652707E-02  0.54675616510E-01  0.51100000000E-03 0.  1.
         11    1    4    4    0    0 -0.54286392816E-01  0.46761504820E-01  0.13083959351E-01  0.72836130398E-01  0.51100000000E-03 0. -1.
</event>
<event>
 8    1  0.1166736E+005  0.1043930E+01  0.7957747E-01            NaN
         13   -1    0    0    0    0  0.00000000000E+00  0.00000000000E+00  0.74505805969E-08  0.10566000000E+00  0.10566000000E+00 0.  1.
     999900   -1    0    0    0    0 -0.00000000000E+00 -0.00000000000E+00 -0.74505805969E-08  0.93827000000E+00  0.93827000000E+00 0.  1.
     999902    2    1    2    0    0  0.14227930836E-01  0.12832386815E-01 -0.14090752556E-01  0.10201465294E+01  0.10198692504E+01 0.  0.
     999903    2    3    3    0    0 -0.30953054710E-01 -0.84900829370E-02  0.12236735875E+00  0.12822905264E+00  0.20946272891E-01 0.  0.
         14    1    1    2    0    0 -0.14227930836E-01 -0.12832386815E-01  0.14090752556E-01  0.23783470622E-01  0.00000000000E+00 0.  1.
     999901    1    3    3    0    0  0.45180985546E-01  0.21322469752E-01 -0.13645811131E+00  0.89191747674E+00  0.88000000000E+00 0.  1.
        -11    1    4    4    0    0 -0.20056015980E-01 -0.15327305578E-01  0.87090720760E-01  0.90676484475E-01  0.51100000000E-03 0. -1.
         11    1    4    4    0    0 -0.10897038729E-01  0.68372226408E-02  0.35276637994E-01  0.37552568163E-01  0.51100000000E-03 0.  1.
</event>
<event>
 8    1  0.1166736E+005  0.1043930E+01  0.7957747E-01            NaN
         13   -1    0    0    0    0  0.00000000000E+00  0.00000000000E+00  0.74505805969E-08  0.10566000000E+00  0.10566000000E+00 0.  1.
     999900   -1    0    0    0    0 -0.00000000000E+00 -0.00000000000E+00 -0.74505805969E-08  0.93827000000E+00  0.93827000000E+00 0.  1.
     999902    2    1    2    0    0 -0.11810623490E-01 -0.25124761990E-02  0.19100286997E-01  0.10213330018E+01  0.10210829919E+01 0.  0.
     999903    2    3    3    0    0 -0.30700799181E-01  0.12547157037E+00 -0.12865647132E-01  0.13130009463E+00  0.19711314825E-01 0.  0.
         14    1    1    2    0    0  0.11810623490E-01  0.25124761990E-02 -0.19100286997E-01  0.22596998191E-01  0.00000000000E+00 0. -1.
     999901    1    3    3    0    0  0.18890175691E-01 -0.12798404657E+00  0.31965934130E-01  0.89003290718E+00  0.88000000000E+00 0. -1.
        -11    1    4    4    0    0 -0.25923003337E-01  0.73928481087E-01 -0.18000861118E-02  0.78364046915E-01  0.51100000000E-03 0.  1.
         11    1    4    4    0    0 -0.47777958442E-02  0.51543089284E-01 -0.11065561021E-01  0.52936047716E-01  0.51100000000E-03 0. -1.
</event>
<event>
 8    1  0.1166736E+005  0.1043930E+01  0.7957747E-01            NaN
         13   -1    0    0    0    0  0.00000000000E+00  0.00000000000E+00  0.74505805969E-08  0.10566000000E+00  0.10566000000E+00 0. -1.
     999900   -1    0    0    0    0 -0.00000000000E+00 -0.00000000000E+00 -0.74505805969E-08  0.93827000000E+00  0.93827000000E+00 0. -1.
     999902    2    1    2    0    0 -0.15951278702E-01 -0.64639276391E-02  0.14725759790E-01  0.10212788708E+01  0.10210276481E+01 0.  0.
     999903    2    3    3    0    0  0.10708053034E+00 -0.58279959092E-01  0.42905314048E-01  0.13076451694E+00  0.19892192118E-01 0.  0.
         14    1    1    2    0    0  0.15951278702E-01  0.64639276391E-02 -0.14725759790E-01  0.22651129202E-01  0.00000000000E+00 0.  1.
     999901    1    3    3    0    0 -0.12303180904E+00  0.51816031453E-01 -0.28179554258E-01  0.89051435386E+00  0.88000000000E+00 0. -1.
        -11    1    4    4    0    0  0.80270094619E-01 -0.35382006361E-01  0.36053126377E-01  0.94843363009E-01  0.51100000000E-03 0.  1.
         11    1    4    4    0    0  0.26810435719E-01 -0.22897952732E-01  0.68521876707E-02  0.35921153930E-01  0.51100000000E-03 0. -1.
</event>
<event>
 8    1  0.1166736E+005  0.1043930E+01  0.7957747E-01            NaN
         13   -1    0    0    0    0  0.00000000000E+00  0.00000000000E+00  0.74505805969E-08  0.10566000000E+00  0.10566000000E+00 0.  1.
     999900   -1    0    0    0    0 -0.00000000000E+00 -0.00000000000E+00 -0.74505805969E-08  0.93827000000E+00  0.93827000000E+00 0. -1.
     999902    2    1    2    0    0 -0.32847918918E-02 -0.65187461375E-02  0.22086825753E-01  0.10206681905E+01  0.10204030789E+01 0.  0.
     999903    2    3    3    0    0  0.77357221001E-02  0.40158626782E-01 -0.11968872404E+00  0.12803134644E+00  0.19851405691E-01 0.  0.
         14    1    1    2    0    0  0.32847918918E-02  0.65187461375E-02 -0.22086825753E-01  0.23261809492E-01  0.00000000000E+00 0. -1.
     999901    1    3    3    0    0 -0.11020513992E-01 -0.46677372919E-01  0.14177554979E+00  0.89263684407E+00  0.88000000000E+00 0.  1.
        -11    1    4    4    0    0  0.52202001543E-02  0.17089068892E-01 -0.80699535187E-01  0.82655688647E-01  0.51100000000E-03 0. -1.
         11    1    4    4    0    0  0.25155219458E-02  0.23069557890E-01 -0.38989188850E-01  0.45375657793E-01  0.51100000000E-03 0.  1.
</event>
<event>
 8    1  0.1166736E+005  0.1043930E+01  0.7957747E-01            NaN
         13   -1    0    0    0    0  0.00000000000E+00  0.00000000000E+00  0.74505805969E-08  0.10566000000E+00  0.10566000000E+00 0.  1.
     999900   -1    0    0    0    0 -0.00000000000E+00 -0.00000000000E+00 -0.74505805969E-08  0.93827000000E+00  0.93827000000E+00 0.  1.
     999902    2    1    2    0    0  0.12844351737E-01  0.98592723471E-02 -0.17400087028E-01  0.10201614146E+01  0.10198844867E+01 0.  0.
     999903    2    3    3    0    0 -0.11200511501E+00  0.62301776687E-01 -0.43331621512E-02  0.12970740113E+00  0.19457041019E-01 0.  0.
         14    1    1    2    0    0 -0.12844351737E-01 -0.98592723471E-02  0.17400087028E-01  0.23768585388E-01  0.00000000000E+00 0.  1.
     999901    1    3    3    0    0  0.12484946675E+00 -0.52442504340E-01 -0.13066924877E-01  0.89045401349E+00  0.88000000000E+00 0.  1.
        -11    1    4    4    0    0 -0.57805370901E-01  0.23670978236E-01  0.41766837931E-02  0.62605765902E-01  0.51100000000E-03 0. -1.
         11    1    4    4    0    0 -0.54199744112E-01  0.38630798451E-01 -0.85098459443E-02  0.67101635224E-01  0.51100000000E-03 0.  1.
</event>
<event>
 8    1  0.1166736E+005  0.1043930E+01  0.7957747E-01            NaN
         13   -1    0    0    0    0  0.00000000000E+00  0.00000000000E+00  0.74505805969E-08  0.10566000000E+00  0.10566000000E+00 0. -1.
     999900   -1    0    0    0    0 -0.00000000000E+00 -0.00000000000E+00 -0.74505805969E-08  0.93827000000E+00  0.93827000000E+00 0.  1.
     999902    2    1    2    0    0 -0.13694550120E-01  0.18341810142E-01 -0.70455812026E-02  0.10199799913E+01  0.10196987691E+01 0.  0.
     999903    2    3    3    0    0  0.10048921609E+00 -0.41114478874E-01 -0.66157229233E-01  0.12865111277E+00  0.19642986397E-01 0.  0.
         14    1    1    2    0    0  0.13694550120E-01 -0.18341810142E-01  0.70455812026E-02  0.23950008701E-01  0.00000000000E+00 0.  1.
     999901    1    3    3    0    0 -0.11418376621E+00  0.59456289016E-01  0.59111648030E-01  0.89132887853E+00  0.88000000000E+00 0. -1.
        -11    1    4    4    0    0  0.48461132512E-01 -0.30413236391E-01 -0.34625401356E-01  0.66877693233E-01  0.51100000000E-03 0. -1.
         11    1    4    4    0    0  0.52028083573E-01 -0.10701242483E-01 -0.31531827877E-01  0.61773419536E-01  0.51100000000E-03 0.  1.
</event>
<event>
 8    1  0.1166736E+005  0.1043930E+01  0.7957747E-01            NaN
         13   -1    0    0    0    0  0.00000000000E+00  0.00000000000E+00  0.74505805969E-08  0.10566000000E+00  0.10566000000E+00 0. -1.
     999900   -1    0    0    0    0 -0.00000000000E+00 -0.00000000000E+00 -0.74505805969E-08  0.93827000000E+00  0.93827000000E+00 0. -1.
     999902    2    1    2    0    0  0.12025388660E-01  0.20281480988E-01 -0.65185481911E-02  0.10194669684E+01  0.10191734199E+01 0.  0.
     999903    2    3    3    0    0  0.39773627674E-01  0.45135719749E-01 -0.11566793743E+00  0.13194159576E+00  0.20256808381E-01 0.  0.
         14    1    1    2    0    0 -0.12025388660E-01 -0.20281480988E-01  0.65185481911E-02  0.24463031579E-01  0.00000000000E+00 0.  1.
     999901    1    3    3    0    0 -0.27748239014E-01 -0.24854238760E-01  0.10914938924E+00  0.88752537266E+00  0.88000000000E+00 0.  1.
        -11    1    4    4    0    0  0.14774446851E-01  0.28504678057E-01 -0.73155874248E-01  0.79892703102E-01  0.51100000000E-03 0. -1.
         11    1    4    4    0    0  0.24999180823E-01  0.16631041692E-01 -0.42512063182E-01  0.52048892654E-01  0.51100000000E-03 0.  1.
</event>
<event>
 8    1  0.1166736E+005  0.1043930E+01  0.7957747E-01            NaN
         13   -1    0    0    0    0  0.00000000000E+00  0.00000000000E+00  0.74505805969E-08  0.10566000000E+00  0.10566000000E+00 0. -1.
     999900   -1    0    0    0    0 -0.00000000000E+00 -0.00000000000E+00 -0.74505805969E-08  0.93827000000E+00  0.93827000000E+00 0.  1.
     999902    2    1    2    0    0 -0.18491235294E-01  0.93349735350E-02 -0.12109955098E-01  0.10199358648E+01  0.10196535930E+01 0.  0.
     999903    2    3    3    0    0  0.80747381545E-01  0.41302983172E-01 -0.91198387032E-01  0.13025882404E+00  0.20594644880E-01 0.  0.
         14    1    1    2    0    0  0.18491235294E-01 -0.93349735350E-02  0.12109955098E-01  0.23994135244E-01  0.00000000000E+00 0. -1.
     999901    1    3    3    0    0 -0.99238616839E-01 -0.31968009637E-01  0.79088431934E-01  0.88967704072E+00  0.88000000000E+00 0. -1.
        -11    1    4    4    0    0  0.38778818815E-01  0.23891329316E-01 -0.59139372187E-01  0.74647966274E-01  0.51100000000E-03 0.  1.
         11    1    4    4    0    0  0.41968562730E-01  0.17411653855E-01 -0.32059014845E-01  0.55610857766E-01  0.51100000000E-03 0. -1.
</event>
<event>
 8    1  0.1166736E+005  0.1043930E+01  0.7957747E-01            NaN
         13   -1    0    0    0    0  0.00000000000E+00  0.00000000000E+00  0.74505805969E-08  0.10566000000E+00  0.10566000000E+00 0.  1.
     999900   -1    0    0    0    0 -0.00000000000E+00 -0.00000000000E+00 -0.74505805969E-08  0.93827000000E+00  0.93827000000E+00 0. -1.
     999902    2    1    2    0    0  0.55390021796E-02  0.21865136466E-01 -0.55172973384E-02  0.10207092053E+01  0.10204450384E+01 0.  0.
     999903    2    3    3    0    0  0.19405738191E-01  0.95900680060E-01 -0.88618202221E-01  0.13359066276E+00  0.20487955006E-01 0.  0.
         14    1    1    2    0    0 -0.55390021796E-02 -0.21865136466E-01  0.55172973384E-02  0.23220794727E-01  0.00000000000E+00 0.  1.
     999901    1    3    3    0    0 -0.13866736011E-01 -0.74035543594E-01  0.83100904883E-01  0.88711854252E+00  0.88000000000E+00 0.  1.
        -11    1    4    4    0    0  0.11156559769E-01  0.50489005924E-01 -0.33122450427E-01  0.61408194798E-01  0.51100000000E-03 0.  1.
         11    1    4    4    0    0  0.82491784216E-02  0.45411674136E-01 -0.55495751795E-01  0.72182467959E-01  0.51100000000E-03 0. -1.
</event>
<event>
 8    1  0.1166736E+005  0.1043930E+01  0.7957747E-01            NaN
         13   -1    0    0    0    0  0.00000000000E+00  0.00000000000E+00  0.74505805969E-08  0.10566000000E+00  0.10566000000E+00 0.  1.
     999900   -1    0    0    0    0 -0.00000000000E+00 -0.00000000000E+00 -0.74505805969E-08  0.93827000000E+00  0.93827000000E+00 0.  1.
     999902    2    1    2    0    0  0.18846315846E-01  0.27080925709E-02 -0.14466702576E-01  0.10200176001E+01  0.10197372709E+01 0.  0.
     999903    2    3    3    0    0 -0.53502607665E-01  0.79576745566E-01  0.82644710770E-01  0.12840457688E+00  0.21508130629E-01 0.  0.
         14    1    1    2    0    0 -0.18846315846E-01 -0.27080925709E-02  0.14466702576E-01  0.23912399917E-01  0.00000000000E+00 0.  1.
     999901    1    3    3    0    0  0.72348923511E-01 -0.76868652995E-01 -0.97111413347E-01  0.89161302320E+00  0.88000000000E+00 0.  1.
        -11    1    4    4    0    0 -0.93046395367E-02  0.31772880714E-01  0.25850533322E-01  0.42007183431E-01  0.51100000000E-03 0. -1.
         11    1    4    4    0    0 -0.44197968128E-01  0.47803864852E-01  0.56794177448E-01  0.86397393447E-01  0.51100000000E-03 0.  1.
</event>
<event>
 8    1  0.1166736E+005  0.1043930E+01  0.7957747E-01            NaN
         13   -1    0    0    0    0  0.00000000000E+00  0.00000000000E+00  0.74505805969E-08  0.10566000000E+00  0.10566000000E+00 0. -1.
     999900   -1    0    0    0    0 -0.00000000000E+00 -0.00000000000E+00 -0.74505805969E-08  0.93827000000E+00  0.93827000000E+00 0. -1.
     999902    2    1    2    0    0 -0.56319521360E-02  0.11706438699E-01  0.19818173124E-01  0.10202335957E+01  0.10199583669E+01 0.  0.
     999903    2    3    3    0    0 -0.11066971683E+00  0.68936067546E-01  0.63495239024E-02  0.13203904101E+00  0.19850044429E-01 0.  0.
         14    1    1    2    0    0  0.56319521360E-02 -0.11706438699E-01 -0.19818173124E-01  0.23696404323E-01  0.00000000000E+00 0.  1.
     999901    1    3    3    0    0  0.10503776470E+00 -0.57229628847E-01  0.13468649222E-01  0.88819455467E+00  0.88000000000E+00 0. -1.
        -11    1    4    4    0    0 -0.59704560047E-01  0.44725684854E-01  0.11064010780E-01  0.75416807355E-01  0.51100000000E-03 0. -1.
         11    1    4    4    0    0 -0.50965156787E-01  0.24210382692E-01 -0.47144868777E-02  0.56622233654E-01  0.51100000000E-03 0.  1.
</event>
<event>
 8    1  0.1166736E+005  0.1043930E+01  0.7957747E-01            NaN
         13   -1    0    0    0    0  0.00000000000E+00  0.00000000000E+00  0.74505805969E-08  0.10566000000E+00  0.10566000000E+00 0.  1.
     999900   -1    0    0    0    0 -0.00000000000E+00 -0.00000000000E+00 -0.74505805969E-08  0.93827000000E+00  0.93827000000E+00 0.  1.
     999902    2    1    2    0    0 -0.49143425867E-02  0.77228337079E-02  0.21927706495E-01  0.10201683242E+01  0.10198915592E+01 0.  0.
     999903    2    3    3    0    0 -0.84431523390E-01 -0.96939929587E-01 -0.18051778722E-02  0.13008938061E+00  0.19848329659E-01 0.  0.
         14    1    1    2    0    0  0.49143425867E-02 -0.77228337079E-02 -0.21927706495E-01  0.23761675776E-01  0.00000000000E+00 0. -1.
     999901    1    3    3    0    0  0.79517180803E-01  0.10466276329E+00  0.23732884368E-01  0.89007894361E+00  0.88000000000E+00 0.  1.
        -11    1    4    4    0    0 -0.19864111413E-01 -0.30695146726E-01 -0.77998313925E-02  0.37388145788E-01  0.51100000000E-03 0.  1.
         11    1    4    4    0    0 -0.64567411977E-01 -0.66244782861E-01  0.59946535204E-02  0.92701234822E-01  0.51100000000E-03 0. -1.
</event>
<event>
 8    1  0.1166736E+005  0.1043930E+01  0.7957747E-01            NaN
         13   -1    0    0    0    0  0.00000000000E+00  0.00000000000E+00  0.74505805969E-08  0.10566000000E+00  0.10566000000E+00 0.  1.
     999900   -1    0    0    0    0 -0.00000000000E+00 -0.00000000000E+00 -0.74505805969E-08  0.93827000000E+00  0.93827000000E+00 0. -1.
     999902    2    1    2    0    0  0.21325002557E-01 -0.91326580473E-02  0.72253242978E-02  0.10196325415E+01  0.10193430008E+01 0.  0.
     999903    2    3    3    0    0 -0.10015921877E+00  0.71603919699E-01  0.26613932240E-01  0.12741467064E+00  0.19162632475E-01 0.  0.
         14    1    1    2    0    0 -0.21325002557E-01  0.91326580473E-02 -0.72253242978E-02  0.24297458474E-01  0.00000000000E+00 0.  1.
     999901    1    3    3    0    0  0.12148422133E+00 -0.80736577746E-01 -0.19388607943E-01  0.89221787089E+00  0.88000000000E+00 0. -1.
        -11    1    4    4    0    0 -0.54237400858E-01  0.27042484396E-01  0.12310264714E-01  0.61844929884E-01  0.51100000000E-03 0. -1.
         11    1    4    4    0    0 -0.45921817912E-01  0.44561435303E-01  0.14303667527E-01  0.65569740752E-01  0.51100000000E-03 0.  1.
</event>
<event>
 8    1  0.1166736E+005  0.1043930E+01  0.7957747E-01            NaN
         13   -1    0    0    0    0  0.00000000000E+00  0.00000000000E+00  0.74505805969E-08  0.10566000000E+00  0.10566000000E+00 0. -1.
     999900   -1    0    0    0    0 -0.00000000000E+00 -0.00000000000E+00 -0.74505805969E-08  0.93827000000E+00  0.93827000000E+00 0. -1.
     999902    2    1    2    0    0 -0.67112310933E-02 -0.18363183103E-01  0.32278332925E-02  0.10241141976E+01  0.10239224696E+01 0.  0.
     999903    2    3    3    0    0 -0.73832384104E-01 -0.11164496049E+00  0.17764204963E-01  0.13652305003E+00  0.20178158109E-01 0.  0.
         14    1    1    2    0    0  0.67112310933E-02  0.18363183103E-01 -0.32278332925E-02  0.19815802386E-01  0.00000000000E+00 0.  1.
     999901    1    3    3    0    0  0.67121153011E-01  0.93281777389E-01 -0.14536371670E-01  0.88759114759E+00  0.88000000000E+00 0.  1.
        -11    1    4    4    0    0 -0.23881194941E-01 -0.28676300317E-01 -0.31162568625E-02  0.37451486613E-01  0.51100000000E-03 0. -1.
         11    1    4    4    0    0 -0.49951189163E-01 -0.82968660175E-01  0.20880461825E-01  0.99071563413E-01  0.51100000000E-03 0.  1.
</event>
<event>
 8    1  0.1166736E+005  0.1043930E+01  0.7957747E-01            NaN
         13   -1    0    0    0    0  0.00000000000E+00  0.00000000000E+00  0.74505805969E-08  0.10566000000E+00  0.10566000000E+00 0. -1.
     999900   -1    0    0    0    0 -0.00000000000E+00 -0.00000000000E+00 -0.74505805969E-08  0.93827000000E+00  0.93827000000E+00 0.  1.
     999902    2    1    2    0    0 -0.72275729857E-02 -0.25393901816E-03  0.23044276883E-01  0.10197775468E+01  0.10194914929E+01 0.  0.
     999903    2    3    3    0    0 -0.46465488704E-01  0.11235150572E+00 -0.39868004335E-01  0.12950929775E+00  0.20032422619E-01 0.  0.
         14    1    1    2    0    0  0.72275729857E-02  0.25393901816E-03 -0.23044276883E-01  0.24152453154E-01  0.00000000000E+00 0.  1.
     999901    1    3    3    0    0  0.39237915718E-01 -0.11260544474E+00  0.62912281219E-01  0.89026824909E+00  0.88000000000E+00 0. -1.
        -11    1    4    4    0    0 -0.11490231128E-01  0.52277338112E-01 -0.13913079753E-01  0.55306241968E-01  0.51100000000E-03 0. -1.
         11    1    4    4    0    0 -0.34975257576E-01  0.60074167611E-01 -0.25954924583E-01  0.74203055785E-01  0.51100000000E-03 0.  1.
</event>
<event>
 8    1  0.1166736E+005  0.1043930E+01  0.7957747E-01            NaN
         13   -1    0    0    0    0  0.00000000000E+00  0.00000000000E+00  0.74505805969E-08  0.10566000000E+00  0.10566000000E+00 0.  1.
     999900   -1    0    0    0    0 -0.00000000000E+00 -0.00000000000E+00 -0.74505805969E-08  0.93827000000E+00  0.93827000000E+00 0. -1.
     999902    2    1    2    0    0 -0.21575016975E-01 -0.10427664241E-01  0.13499514775E-02  0.10199291686E+01  0.10196467374E+01 0.  0.
     999903    2    3    3    0    0  0.19634261727E-01 -0.12604450817E+00 -0.21655141602E-01  0.13111271198E+00  0.21186689455E-01 0.  0.
         14    1    1    2    0    0  0.21575016975E-01  0.10427664241E-01 -0.13499514775E-02  0.24000831403E-01  0.00000000000E+00 0.  1.
     999901    1    3    3    0    0 -0.41209278702E-01  0.11561684393E+00  0.23005093080E-01  0.88881645662E+00  0.88000000000E+00 0.  1.
        -11    1    4    4    0    0 -0.24213657509E-02 -0.45021891981E-01 -0.36946169649E-02  0.45240966890E-01  0.51100000000E-03 0.  1.
         11    1    4    4    0    0  0.22055627478E-01 -0.81022616192E-01 -0.17960524637E-01  0.85871745087E-01  0.51100000000E-03 0. -1.
</event>
<event>
 8    1  0.1166736E+005  0.1043930E+01  0.7957747E-01            NaN
         13   -1    0    0    0    0  0.00000000000E+00  0.00000000000E+00  0.74505805969E-08  0.10566000000E+00  0.10566000000E+00 0.  1.
     999900   -1    0    0    0    0 -0.00000000000E+00 -0.00000000000E+00 -0.74505805969E-08  0.93827000000E+00  0.93827000000E+00 0.  1.
     999902    2    1    2    0    0 -0.20801302551E-01 -0.66364682818E-02  0.12417464641E-01  0.10188116735E+01  0.10185019861E+01 0.  0.
     999903    2    3    3    0    0 -0.65922476624E-01 -0.25135442919E-01 -0.10674366177E+00  0.12944251140E+00  0.19585479663E-01 0.  0.
         14    1    1    2    0    0  0.20801302551E-01  0.66364682818E-02 -0.12417464641E-01  0.25118326520E-01  0.00000000000E+00 0. -1.
     999901    1    3    3    0    0  0.45121174073E-01  0.18498974637E-01  0.11916112641E+00  0.88936916208E+00  0.88000000000E+00 0. -1.
        -11    1    4    4    0    0 -0.27646436906E-01 -0.16730383485E-01 -0.62323305312E-01  0.70204606054E-01  0.51100000000E-03 0.  1.
         11    1    4    4    0    0 -0.38276039718E-01 -0.84050594340E-02 -0.44420356461E-01  0.59237905345E-01  0.51100000000E-03 0. -1.
</event>
<event>
 7    1  0.1166736E+005  0.1043930E+01  0.7957747E-01            NaN
         13   -1    0    0    0    0  0.00000000000E+00  0.00000000000E+00  0.74505805969E-08  0.10566000000E+00  0.10566000000E+00 0.  1.
     999900   -1    0    0    0    0 -0.00000000000E+00 -0.00000000000E+00 -0.74505805969E-08  0.93827000000E+00  0.93827000000E+00 0. -1.
     999903    2    1    2    0    0 -0.27928625458E-01 -0.22402970583E-01  0.26436663354E-01  0.48456052765E-01  0.19162219844E-01 0.  0.
         14    1    1    2    0    0 -0.96254080654E-02 -0.65312416222E-01 -0.85880082876E-01  0.10832242994E+00  0.00000000000E+00 0.  1.
     999901    1    1    2    0    0  0.37554033523E-01  0.87715386805E-01  0.59443419522E-01  0.88715151730E+00  0.88000000000E+00 0.  1.
        -11    1    3    3    0    0 -0.58563585522E-02 -0.15881272230E-01  0.69891857128E-02  0.18319977649E-01  0.51100000000E-03 0. -1.
         11    1    3    3    0    0 -0.22072266906E-01 -0.65216983527E-02  0.19447477641E-01  0.30136075116E-01  0.51100000000E-03 0.  1.
</event>
<event>
 8    1  0.1166736E+005  0.1043930E+01  0.7957747E-01            NaN
         13   -1    0    0    0    0  0.00000000000E+00  0.00000000000E+00  0.74505805969E-08  0.10566000000E+00  0.10566000000E+00 0. -1.
     999900   -1    0    0    0    0 -0.00000000000E+00 -0.00000000000E+00 -0.74505805969E-08  0.93827000000E+00  0.93827000000E+00 0.  1.
     999902    2    1    2    0    0 -0.47880522290E-02 -0.19223418794E-01 -0.14169601543E-01  0.10195734222E+01  0.10192824537E+01 0.  0.
     999903    2    3    3    0    0  0.78298453300E-01  0.60496238400E-01  0.77449377410E-01  0.12735560773E+00  0.20750954446E-01 0.  0.
         14    1    1    2    0    0  0.47880522290E-02  0.19223418794E-01  0.14169601543E-01  0.24356577801E-01  0.00000000000E+00 0. -1.
     999901    1    3    3    0    0 -0.83086505529E-01 -0.79719657194E-01 -0.91618978953E-01  0.89221781446E+00  0.88000000000E+00 0. -1.
        -11    1    4    4    0    0  0.70168504705E-01  0.59914574640E-01  0.74768475492E-01  0.11876010001E+00  0.51100000000E-03 0.  1.
         11    1    4    4    0    0  0.81299485953E-02  0.58166376045E-03  0.26809019186E-02  0.85955077215E-02  0.51100000000E-03 0. -1.
</event>
<event>
 8    1  0.1166736E+005  0.1043930E+01  0.7957747E-01            NaN
         13   -1    0    0    0    0  0.00000000000E+00  0.00000000000E+00  0.74505805969E-08  0.10566000000E+00  0.10566000000E+00 0.  1.
     999900   -1    0    0    0    0 -0.00000000000E+00 -0.00000000000E+00 -0.74505805969E-08  0.93827000000E+00  0.93827000000E+00 0. -1.
     999902    2    1    2    0    0 -0.56821138164E-02 -0.23918486751E-01  0.65919612125E-02  0.10184774092E+01  0.10181593189E+01 0.  0.
     999903    2    3    3    0    0  0.53011713148E-01  0.55421636241E-01  0.10042113130E+00  0.12800352772E+00  0.20462160250E-01 0.  0.
         14    1    1    2    0    0  0.56821138164E-02  0.23918486751E-01 -0.65919612125E-02  0.25452590801E-01  0.00000000000E+00 0.  1.
     999901    1    3    3    0    0 -0.58693826964E-01 -0.79340122992E-01 -0.93829170088E-01  0.89047388148E+00  0.88000000000E+00 0. -1.
        -11    1    4    4    0    0  0.74499473722E-02  0.14900342422E-01  0.11759423174E-01  0.20397722288E-01  0.51100000000E-03 0.  1.
         11    1    4    4    0    0  0.45561765775E-01  0.40521293819E-01  0.88661708127E-01  0.10760580543E+00  0.51100000000E-03 0. -1.
</event>
<event>
 8    1  0.1166736E+005  0.1043930E+01  0.7957747E-01            NaN
         13   -1    0    0    0    0  0.00000000000E+00  0.00000000000E+00  0.74505805969E-08  0.10566000000E+00  0.10566000000E+00 0.  1.
     999900   -1    0    0    0    0 -0.00000000000E+00 -0.00000000000E+00 -0.74505805969E-08  0.93827000000E+00  0.93827000000E+00 0. -1.
     999902    2    1    2    0    0  0.98463440737E-02  0.99114767400E-02 -0.18782510668E-01  0.10205212288E+01  0.10202527176E+01 0.  0.
     999903    2    3    3    0    0 -0.59370584632E-01 -0.40002357941E-01  0.10387930173E+00  0.12792485061E+00  0.21184973814E-01 0.  0.
         14    1    1    2    0    0 -0.98463440737E-02 -0.99114767400E-02  0.18782510668E-01  0.23408771215E-01  0.00000000000E+00 0.  1.
     999901    1    3    3    0    0  0.69216928706E-01  0.49913834681E-01 -0.12266181240E+00  0.89259637818E+00  0.88000000000E+00 0. -1.
        -11    1    4    4    0    0 -0.32187630908E-01 -0.91464939285E-02  0.49321280262E-01  0.59603286339E-01  0.51100000000E-03 0.  1.
         11    1    4    4    0    0 -0.27182953724E-01 -0.30855864012E-01  0.54558021466E-01  0.68321564271E-01  0.51100000000E-03 0. -1.
</event>
<event>
 8    1  0.1166736E+005  0.1043930E+01  0.7957747E-01            NaN
         13   -1    0    0    0    0  0.00000000000E+00  0.00000000000E+00  0.74505805969E-08  0.10566000000E+00  0.10566000000E+00 0. -1.
     999900   -1    0    0    0    0 -0.00000000000E+00 -0.00000000000E+00 -0.74505805969E-08  0.93827000000E+00  0.93827000000E+00 0. -1.
     999902    2    1    2    0    0 -0.19030050416E-01  0.12131952579E-01  0.14217113991E-01  0.10172569158E+01  0.10169071635E+01 0.  0.
     999903    2    3    3    0    0 -0.40209184557E-01  0.12204978931E+00  0.51109460282E-02  0.13011915372E+00  0.19797545369E-01 0.  0.
         14    1    1    2    0    0  0.19030050416E-01 -0.12131952579E-01 -0.14217113991E-01  0.26673084232E-01  0.00000000000E+00 0.  1.
     999901    1    3    3    0    0  0.21179134141E-01 -0.10991783673E+00  0.91061679631E-02  0.88713776205E+00  0.88000000000E+00 0.  1.
        -11    1    4    4    0    0 -0.70189229419E-02  0.39321647224E-01  0.87975606129E-02  0.40903733490E-01  0.51100000000E-03 0. -1.
         11    1    4    4    0    0 -0.33190261615E-01  0.82728142085E-01 -0.36866145847E-02  0.89215420231E-01  0.51100000000E-03 0.  1.
</event>
<event>
 8    1  0.1166736E+005  0.1043930E+01  0.7957747E-01            NaN
         13   -1    0    0    0    0  0.00000000000E+00  0.00000000000E+00  0.74505805969E-08  0.10566000000E+00  0.10566000000E+00 0. -1.
     999900   -1    0    0    0    0 -0.00000000000E+00 -0.00000000000E+00 -0.74505805969E-08  0.93827000000E+00  0.93827000000E+00 0.  1.
     999902    2    1    2    0    0 -0.18360632744E-01 -0.11918157696E-01 -0.92200449643E-02  0.10201778517E+01  0.10199013112E+01 0.  0.
     999903    2    3    3    0    0 -0.85446334275E-01  0.68483363574E-01 -0.70726918082E-01  0.13183783159E+00  0.19694409580E-01 0.  0.
         14    1    1    2    0    0  0.18360632744E-01  0.11918157696E-01  0.92200449643E-02  0.23752148256E-01  0.00000000000E+00 0. -1.
     999901    1    3    3    0    0  0.67085701530E-01 -0.80401521270E-01  0.61506873117E-01  0.88834002016E+00  0.88000000000E+00 0. -1.
        -11    1    4    4    0    0 -0.15900147959E-01  0.42412015367E-02 -0.83692449445E-02  0.18469106030E-01  0.51100000000E-03 0.  1.
         11    1    4    4    0    0 -0.69546186315E-01  0.64242162037E-01 -0.62357673137E-01  0.11336872556E+00  0.51100000000E-03 0. -1.
</event>
<event>
 7    1  0.1166736E+005  0.1043930E+01  0.7957747E-01            NaN
         13   -1    0    0    0    0  0.00000000000E+00  0.00000000000E+00  0.74505805969E-08  0.10566000000E+00  0.10566000000E+00 0.  1.
     999900   -1    0    0    0    0 -0.00000000000E+00 -0.00000000000E+00 -0.74505805969E-08  0.93827000000E+00  0.93827000000E+00 0. -1.
     999902    2    1    2    0    0  0.76721927482E-02 -0.11328232832E-01 -0.19167604752E-01  0.10203802978E+01  0.10201085059E+01 0.  0.
         14    1    1    2    0    0 -0.76721927482E-02  0.11328232832E-01  0.19167604752E-01  0.23549702176E-01  0.00000000000E+00 0.  1.
     999901    1    3    3    0    0 -0.54621301808E-01  0.83744135168E-01 -0.83654465878E-01  0.88960364008E+00  0.88000000000E+00 0.  1.
        -11    1    3    3    0    0  0.54676171133E-01 -0.85540841871E-01  0.58568879845E-01  0.11720620344E+00  0.51100000000E-03 0.  1.
         11    1    3    3    0    0  0.76173234234E-02 -0.95315261285E-02  0.59179812811E-02  0.13570454300E-01  0.51100000000E-03 0. -1.
</event>
<event>
 8    1  0.1166736E+005  0.1043930E+01  0.7957747E-01            NaN
         13   -1    0    0    0    0  0.00000000000E+00  0.00000000000E+00  0.74505805969E-08  0.10566000000E+00  0.10566000000E+00 0.  1.
     999900   -1    0    0    0    0 -0.00000000000E+00 -0.00000000000E+00 -0.74505805969E-08  0.93827000000E+00  0.93827000000E+00 0.  1.
     999902    2    1    2    0    0  0.36503124731E-02 -0.18068682682E-01 -0.24300882039E-01  0.10134286075E+01  0.10129694998E+01 0.  0.
     999903    2    3    3    0    0  0.51734301967E-01  0.66540879192E-01  0.84947875143E-01  0.12134893678E+00  0.20131973660E-01 0.  0.
         14    1    1    2    0    0 -0.36503124731E-02  0.18068682682E-01  0.24300882039E-01  0.30501392475E-01  0.00000000000E+00 0.  1.
     999901    1    3    3    0    0 -0.48083989494E-01 -0.84609561874E-01 -0.10924875718E+00  0.89207967074E+00  0.88000000000E+00 0.  1.
        -11    1    4    4    0    0  0.38868918564E-01  0.34010323010E-01  0.49339816201E-01  0.71429500106E-01  0.51100000000E-03 0. -1.
         11    1    4    4    0    0  0.12865383403E-01  0.32530556181E-01  0.35608058942E-01  0.49919436677E-01  0.51100000000E-03 0.  1.
</event>
<event>
 8    1  0.1166736E+005  0.1043930E+01  0.7957747E-01            NaN
         13   -1    0    0    0    0  0.00000000000E+00  0.00000000000E+00  0.74505805969E-08  0.10566000000E+00  0.10566000000E+00 0. -1.
     999900   -1    0    0    0    0 -0.00000000000E+00 -0.00000000000E+00 -0.74505805969E-08  0.93827000000E+00  0.93827000000E+00 0.  1.
     999902    2    1    2    0    0 -0.92824153392E-03  0.95253386766E-02 -0.21512885473E-01  0.10203843433E+01  0.10201126458E+01 0.  0.
     999903    2    3    3    0    0  0.67349253891E-01 -0.96711950156E-01 -0.52652454603E-01  0.13082386153E+00  0.21295033850E-01 0.  0.
         14    1    1    2    0    0  0.92824153392E-03 -0.95253386766E-02  0.21512885473E-01  0.23545656725E-01  0.00000000000E+00 0. -1.
     999901    1    3    3    0    0 -0.68277495425E-01  0.10623728883E+00  0.31139569130E-01  0.88956048175E+00  0.88000000000E+00 0. -1.
        -11    1    4    4    0    0  0.43280462987E-01 -0.47281724408E-01 -0.21389960146E-01  0.67576263994E-01  0.51100000000E-03 0.  1.
         11    1    4    4    0    0  0.24068790904E-01 -0.49430225748E-01 -0.31262494457E-01  0.63247597534E-01  0.51100000000E-03 0. -1.
</event>
<event>
 8    1  0.1166736E+005  0.1043930E+01  0.7957747E-01            NaN
         13   -1    0    0    0    0  0.00000000000E+00  0.00000000000E+00  0.74505805969E-08  0.10566000000E+00  0.10566000000E+00 0. -1.
     999900   -1    0    0    0    0 -0.00000000000E+00 -0.00000000000E+00 -0.74505805969E-08  0.93827000000E+00  0.93827000000E+00 0. -1.
     999902    2    1    2    0    0 -0.90198420804E-03 -0.31086174629E-03 -0.12362407940E-01  0.10315308331E+01  0.10314563104E+01 0.  0.
     999903    2    3    3    0    0 -0.10281253750E+00  0.24680848275E-01 -0.92156981945E-01  0.14171201978E+00  0.20244137184E-01 0.  0.
         14    1    1    2    0    0  0.90198420804E-03  0.31086174629E-03  0.12362407940E-01  0.12399166932E-01  0.00000000000E+00 0. -1.
     999901    1    3    3    0    0  0.10191055329E+00 -0.24991710022E-01  0.79794574005E-01  0.88981881329E+00  0.88000000000E+00 0.  1.
        -11    1    4    4    0    0 -0.62139894698E-01  0.54607881636E-02 -0.48424432768E-01  0.78970713118E-01  0.51100000000E-03 0.  1.
         11    1    4    4    0    0 -0.40672642800E-01  0.19220060112E-01 -0.43732549177E-01  0.62741306661E-01  0.51100000000E-03 0. -1.
</event>
<event>
 8    1  0.1166736E+005  0.1043930E+01  0.7957747E-01            NaN
         13   -1    0    0    0    0  0.00000000000E+00  0.00000000000E+00  0.74505805969E-08  0.10566000000E+00  0.10566000000E+00 0. -1.
     999900   -1    0    0    0    0 -0.00000000000E+00 -0.00000000000E+00 -0.74505805969E-08  0.93827000000E+00  0.93827000000E+00 0. -1.
     999902    2    1    2    0    0 -0.18522029315E-01 -0.44150314768E-02  0.12998232432E-01  0.10208754534E+01  0.10206150985E+01 0.  0.
     999903    2    3    3    0    0  0.75282817015E-01 -0.69968193729E-01  0.78677764271E-01  0.13103818334E+00  0.20439281557E-01 0.  0.
         14    1    1    2    0    0  0.18522029315E-01  0.44150314768E-02 -0.12998232432E-01  0.23054546607E-01  0.00000000000E+00 0.  1.
     999901    1    3    3    0    0 -0.93804846330E-01  0.65553162252E-01 -0.65679531839E-01  0.88983727005E+00  0.88000000000E+00 0.  1.
        -11    1    4    4    0    0  0.55443784616E-01 -0.61558902520E-01  0.66831381001E-01  0.10644344198E+00  0.51100000000E-03 0.  1.
         11    1    4    4    0    0  0.19839032398E-01 -0.84092912095E-02  0.11846383270E-01  0.24594741363E-01  0.51100000000E-03 0. -1.
</event>
<event>
 8    1  0.1166736E+005  0.1043930E+01  0.7957747E-01            NaN
         13   -1    0    0    0    0  0.00000000000E+00  0.00000000000E+00  0.74505805969E-08  0.10566000000E+00  0.10566000000E+00 0. -1.
     999900   -1    0    0    0    0 -0.00000000000E+00 -0.00000000000E+00 -0.74505805969E-08  0.93827000000E+00  0.93827000000E+00 0.  1.
     999902    2    1    2    0    0 -0.17449487247E-01  0.51466561007E-02  0.11769988209E-01  0.10222619291E+01  0.10220322629E+01 0.  0.
     999903    2    3    3    0    0  0.11433499473E+00  0.15906826069E-01 -0.56625787975E-01  0.12975931669E+00  0.17478051039E-01 0.  0.
         14    1    1    2    0    0  0.17449487247E-01 -0.51466561007E-02 -0.11769988209E-01  0.21668070903E-01  0.00000000000E+00 0.  1.
     999901    1    3    3    0    0 -0.13178448198E+00 -0.10760169968E-01  0.68395776184E-01  0.89250261240E+00  0.88000000000E+00 0. -1.
        -11    1    4    4    0    0  0.42495758612E-01  0.87560546180E-02 -0.30254823003E-01  0.52897763926E-01  0.51100000000E-03 0. -1.
         11    1    4    4    0    0  0.71839236123E-01  0.71507714506E-02 -0.26370964972E-01  0.76861552766E-01  0.51100000000E-03 0.  1.
</event>
<event>
 8    1  0.1166736E+005  0.1043930E+01  0.7957747E-01            NaN
         13   -1    0    0    0    0  0.00000000000E+00  0.00000000000E+00  0.74505805969E-08  0.10566000000E+00  0.10566000000E+00 0.  1.
     999900   -1    0    0    0    0 -0.00000000000E+00 -0.00000000000E+00 -0.74505805969E-08  0.93827000000E+00  0.93827000000E+00 0.  1.
     999902    2    1    2    0    0 -0.71633053477E-03  0.66653203528E-02 -0.22592610250E-01  0.10203638025E+01  0.10200916252E+01 0.  0.
     999903    2    3    3    0    0  0.52003367723E-02  0.45482732710E-02 -0.13198565621E+00  0.13356826390E+00  0.19301227524E-01 0.  0.
         14    1    1    2    0    0  0.71633053477E-03 -0.66653203528E-02  0.22592610250E-01  0.23566197461E-01  0.00000000000E+00 0.  1.
     999901    1    3    3    0    0 -0.59166673070E-02  0.21170470818E-02  0.10939304596E+00  0.88679553864E+00  0.88000000000E+00 0. -1.
        -11    1    4    4    0    0  0.12504109701E-01  0.17851414576E-02 -0.77757720043E-01  0.78778573462E-01  0.51100000000E-03 0.  1.
         11    1    4    4    0    0 -0.73037729287E-02  0.27631318133E-02 -0.54227936169E-01  0.54789690441E-01  0.51100000000E-03 0. -1.
</event>
<event>
 8    1  0.1166736E+005  0.1043930E+01  0.7957747E-01            NaN
         13   -1    0    0    0    0  0.00000000000E+00  0.00000000000E+00  0.74505805969E-08  0.10566000000E+00  0.10566000000E+00 0.  1.
     999900   -1    0    0    0    0 -0.00000000000E+00 -0.00000000000E+00 -0.74505805969E-08  0.93827000000E+00  0.93827000000E+00 0. -1.
     999902    2    1    2    0    0 -0.19351541520E-01 -0.12739864806E-01 -0.23880196602E-02  0.10206386078E+01  0.10203728136E+01 0.  0.
     999903    2    3    3    0    0  0.53713233236E-01  0.11434981258E+00  0.10908248904E-01  0.12841271811E+00  0.20244634285E-01 0.  0.
         14    1    1    2    0    0  0.19351541520E-01  0.12739864806E-01  0.23880196602E-02  0.23291392238E-01  0.00000000000E+00 0.  1.
     999901    1    3    3    0    0 -0.73064774756E-01 -0.12708967738E+00 -0.13296268564E-01  0.89222588965E+00  0.88000000000E+00 0. -1.
        -11    1    4    4    0    0  0.39507746778E-02  0.26680597309E-01 -0.33689357371E-03  0.26978463848E-01  0.51100000000E-03 0.  1.
         11    1    4    4    0    0  0.49762458558E-01  0.87669215268E-01  0.11245142477E-01  0.10143425426E+00  0.51100000000E-03 0. -1.
</event>
<event>
 8    1  0.1166736E+005  0.1043930E+01  0.7957747E-01            NaN
         13   -1    0    0    0    0  0.00000000000E+00  0.00000000000E+00  0.74505805969E-08  0.10566000000E+00  0.10566000000E+00 0.  1.
     999900   -1    0    0    0    0 -0.00000000000E+00 -0.00000000000E+00 -0.74505805969E-08  0.93827000000E+00  0.93827000000E+00 0. -1.
     999902    2    1    2    0    0  0.11030482453E-01  0.10595866636E-01 -0.18429529686E-01  0.10199802297E+01  0.10196990132E+01 0.  0.
     999903    2    3    3    0    0  0.89497139844E-01  0.76062737363E-01  0.54555409156E-01  0.13106531320E+00  0.20162975970E-01 0.  0.
         14    1    1    2    0    0 -0.11030482453E-01 -0.10595866636E-01  0.18429529686E-01  0.23949770299E-01  0.00000000000E+00 0.  1.
     999901    1    3    3    0    0 -0.78466657392E-01 -0.65466870727E-01 -0.72984938843E-01  0.88891491650E+00  0.88000000000E+00 0. -1.
        -11    1    4    4    0    0  0.41592035504E-01  0.29452493241E-01  0.13887308636E-01  0.52824854355E-01  0.51100000000E-03 0. -1.
         11    1    4    4    0    0  0.47905104340E-01  0.46610244122E-01  0.40668100521E-01  0.78240458842E-01  0.51100000000E-03 0.  1.
</event>
<event>
 8    1  0.1166736E+005  0.1043930E+01  0.7957747E-01            NaN
         13   -1    0    0    0    0  0.00000000000E+00  0.00000000000E+00  0.74505805969E-08  0.10566000000E+00  0.10566000000E+00 0.  1.
     999900   -1    0    0    0    0 -0.00000000000E+00 -0.00000000000E+00 -0.74505805969E-08  0.93827000000E+00  0.93827000000E+00 0.  1.
     999902    2    1    2    0    0  0.17701557320E-01  0.90788132512E-02  0.12752131303E-01  0.10202997898E+01  0.10200261145E+01 0.  0.
     999903    2    3    3    0    0  0.71314712505E-01  0.52289827923E-01 -0.94776015720E-01  0.13108448145E+00  0.19509838454E-01 0.  0.
         14    1    1    2    0    0 -0.17701557320E-01 -0.90788132512E-02 -0.12752131303E-01  0.23630210206E-01  0.00000000000E+00 0. -1.
     999901    1    3    3    0    0 -0.53613155186E-01 -0.43211014672E-01  0.10752814702E+00  0.88921530835E+00  0.88000000000E+00 0. -1.
        -11    1    4    4    0    0  0.54418251022E-01  0.31398034511E-01 -0.57780335208E-01  0.85358133023E-01  0.51100000000E-03 0.  1.
         11    1    4    4    0    0  0.16896461483E-01  0.20891793412E-01 -0.36995680512E-01  0.45726348423E-01  0.51100000000E-03 0. -1.
</event>
<event>
 8    1  0.1166736E+005  0.1043930E+01  0.7957747E-01            NaN
         13   -1    0    0    0    0  0.00000000000E+00  0.00000000000E+00  0.74505805969E-08  0.10566000000E+00  0.10566000000E+00 0.  1.
     999900   -1    0    0    0    0 -0.00000000000E+00 -0.00000000000E+00 -0.74505805969E-08  0.93827000000E+00  0.93827000000E+00 0. -1.
     999902    2    1    2    0    0 -0.20932187076E-01 -0.95006749009E-03 -0.11538539065E-01  0.10200093610E+01  0.10197288363E+01 0.  0.
     999903    2    3    3    0    0  0.50002087481E-01 -0.62847361055E-02  0.11590413062E+00  0.12798819311E+00  0.20186713938E-01 0.  0.
         14    1    1    2    0    0  0.20932187076E-01  0.95006749009E-03  0.11538539065E-01  0.23920638950E-01  0.00000000000E+00 0.  1.
     999901    1    3    3    0    0 -0.70934274558E-01  0.53346686154E-02 -0.12744266969E+00  0.89202116794E+00  0.88000000000E+00 0. -1.
        -11    1    4    4    0    0  0.12779843740E-01 -0.63124107213E-02  0.53084368940E-01  0.54967101814E-01  0.51100000000E-03 0.  1.
         11    1    4    4    0    0  0.37222243742E-01  0.27674615854E-04  0.62819761683E-01  0.73021091295E-01  0.51100000000E-03 0. -1.
</event>
<event>
 8    1  0.1166736E+005  0.1043930E+01  0.7957747E-01            NaN
         13   -1    0    0    0    0  0.00000000000E+00  0.00000000000E+00  0.74505805969E-08  0.10566000000E+00  0.10566000000E+00 0.  1.
     999900   -1    0    0    0    0 -0.00000000000E+00 -0.00000000000E+00 -0.74505805969E-08  0.93827000000E+00  0.93827000000E+00 0.  1.
     999902    2    1    2    0    0 -0.23735656402E-01 -0.11888535213E-02  0.51507441978E-02  0.10196128266E+01  0.10193228101E+01 0.  0.
     999903    2    3    3    0    0  0.94727704798E-01  0.80307621605E-01 -0.21009970958E-01  0.12755922593E+00  0.20181305621E-01 0.  0.
         14    1    1    2    0    0  0.23735656402E-01  0.11888535213E-02 -0.51507441978E-02  0.24317173424E-01  0.00000000000E+00 0. -1.
     999901    1    3    3    0    0 -0.11846336120E+00 -0.81496475126E-01  0.26160715156E-01  0.89205360064E+00  0.88000000000E+00 0.  1.
        -11    1    4    4    0    0  0.65929327922E-01  0.43362151546E-01 -0.11307263402E-01  0.79718679076E-01  0.51100000000E-03 0.  1.
         11    1    4    4    0    0  0.28798376876E-01  0.36945470059E-01 -0.97027075567E-02  0.47840546856E-01  0.51100000000E-03 0. -1.
</event>
<event>
 8    1  0.1166736E+005  0.1043930E+01  0.7957747E-01            NaN
         13   -1    0    0    0    0  0.00000000000E+00  0.00000000000E+00  0.74505805969E-08  0.10566000000E+00  0.10566000000E+00 0.  1.
     999900   -1    0    0    0    0 -0.00000000000E+00 -0.00000000000E+00 -0.74505805969E-08  0.93827000000E+00  0.93827000000E+00 0. -1.
     999902    2    1    2    0    0 -0.22545494416E-01 -0.14192928962E-01  0.34115414546E-02  0.10170715346E+01  0.10167168383E+01 0.  0.
     999903    2    3    3    0    0  0.60065442452E-01 -0.37802982550E-01  0.10364165055E+00  0.12722431380E+00  0.20186912233E-01 0.  0.
         14    1    1    2    0    0  0.22545494416E-01  0.14192928962E-01 -0.34115414546E-02  0.26858465446E-01  0.00000000000E+00 0. -1.
     999901    1    3    3    0    0 -0.82610936868E-01  0.23610053588E-01 -0.10023010910E+00  0.88984722076E+00  0.88000000000E+00 0. -1.
        -11    1    4    4    0    0  0.12678434444E-02  0.92253897694E-04  0.11273938878E-01  0.11356881465E-01  0.51100000000E-03 0.  1.
         11    1    4    4    0    0  0.58797599008E-01 -0.37895236448E-01  0.92367711672E-01  0.11586743233E+00  0.51100000000E-03 0. -1.
</event>
<event>
 8    1  0.1166736E+005  0.1043930E+01  0.7957747E-01            NaN
         13   -1    0    0    0    0  0.00000000000E+00  0.00000000000E+00  0.74505805969E-08  0.10566000000E+00  0.10566000000E+00 0.  1.
     999900   -1    0    0    0    0 -0.00000000000E+00 -0.00000000000E+00 -0.74505805969E-08  0.93827000000E+00  0.93827000000E+00 0. -1.
     999902    2    1    2    0    0  0.59623079601E-02 -0.90128607461E-02  0.21519033231E-01  0.10198499343E+01  0.10195656128E+01 0.  0.
     999903    2    3    3    0    0 -0.38811874008E-01  0.36224640283E-01  0.11920634551E+00  0.13215968994E+00  0.20915178906E-01 0.  0.
         14    1    1    2    0    0 -0.59623079601E-02  0.90128607461E-02 -0.21519033231E-01  0.24080065744E-01  0.00000000000E+00 0. -1.
     999901    1    3    3    0    0  0.44774181968E-01 -0.45237501030E-01 -0.97687312277E-01  0.88769024431E+00  0.88000000000E+00 0. -1.
        -11    1    4    4    0    0 -0.10714733550E-01  0.23122843347E-01  0.63138063385E-01  0.68089261771E-01  0.51100000000E-03 0.  1.
         11    1    4    4    0    0 -0.28097140458E-01  0.13101796936E-01  0.56068282123E-01  0.64070428171E-01  0.51100000000E-03 0. -1.
</event>
<event>
 8    1  0.1166736E+005  0.1043930E+01  0.7957747E-01            NaN
         13   -1    0    0    0    0  0.00000000000E+00  0.00000000000E+00  0.74505805969E-08  0.10566000000E+00  0.10566000000E+00 0. -1.
     999900   -1    0    0    0    0 -0.00000000000E+00 -0.00000000000E+00 -0.74505805969E-08  0.93827000000E+00  0.93827000000E+00 0. -1.
     999902    2    1    2    0    0 -0.11269737572E-01  0.14320181278E-01  0.14803640750E-01  0.10204518749E+01  0.10201817518E+01 0.  0.
     999903    2    3    3    0    0 -0.24854497205E-02 -0.33083972916E-02  0.13099326661E+00  0.13259605351E+00  0.20133418877E-01 0.  0.
         14    1    1    2    0    0  0.11269737572E-01 -0.14320181278E-01 -0.14803640750E-01  0.23478125058E-01  0.00000000000E+00 0.  1.
     999901    1    3    3    0    0 -0.87842878520E-02  0.17628578570E-01 -0.11618962586E+00  0.88785582143E+00  0.88000000000E+00 0. -1.
        -11    1    4    4    0    0 -0.38009932125E-02  0.53537671156E-02  0.16482930240E-01  0.17749886817E-01  0.51100000000E-03 0.  1.
         11    1    4    4    0    0  0.13155434920E-02 -0.86621644072E-02  0.11451033637E+00  0.11484616669E+00  0.51100000000E-03 0. -1.
</event>
<event>
 8    1  0.1166736E+005  0.1043930E+01  0.7957747E-01            NaN
         13   -1    0    0    0    0  0.00000000000E+00  0.00000000000E+00  0.74505805969E-08  0.10566000000E+00  0.10566000000E+00 0. -1.
     999900   -1    0    0    0    0 -0.00000000000E+00 -0.00000000000E+00 -0.74505805969E-08  0.93827000000E+00  0.93827000000E+00 0. -1.
     999902    2    1    2    0    0  0.23012901004E-01  0.36983266613E-02 -0.10325345648E-02  0.10205989614E+01  0.10203322511E+01 0.  0.
     999903    2    3    3    0    0 -0.86279437351E-01  0.94105975976E-01 -0.14933146535E-02  0.12924124952E+00  0.20024848689E-01 0.  0.
         14    1    1    2    0    0 -0.23012901004E-01 -0.36983266613E-02  0.10325345648E-02  0.23331038561E-01  0.00000000000E+00 0. -1.
     999901    1    3    3    0    0  0.10929233835E+00 -0.90407649315E-01  0.46078008872E-03  0.89135771192E+00  0.88000000000E+00 0.  1.
        -11    1    4    4    0    0 -0.48938205085E-01  0.38739820422E-01 -0.21424139192E-02  0.62454564778E-01  0.51100000000E-03 0.  1.
         11    1    4    4    0    0 -0.37341232266E-01  0.55366155554E-01  0.64909926568E-03  0.66786684742E-01  0.51100000000E-03 0. -1.
</event>
<event>
 8    1  0.1166736E+005  0.1043930E+01  0.7957747E-01            NaN
         13   -1    0    0    0    0  0.00000000000E+00  0.00000000000E+00  0.74505805969E-08  0.10566000000E+00  0.10566000000E+00 0. -1.
     999900   -1    0    0    0    0 -0.00000000000E+00 -0.00000000000E+00 -0.74505805969E-08  0.93827000000E+00  0.93827000000E+00 0. -1.
     999902    2    1    2    0    0 -0.18184025370E-01  0.91711534277E-02 -0.13317085253E-01  0.10195966157E+01  0.10193062077E+01 0.  0.
     999903    2    3    3    0    0  0.64685817591E-01 -0.85306332395E-01 -0.69210496558E-01  0.12891290096E+00  0.19157710103E-01 0.  0.
         14    1    1    2    0    0  0.18184025370E-01 -0.91711534277E-02  0.13317085253E-01  0.24333384341E-01  0.00000000000E+00 0. -1.
     999901    1    3    3    0    0 -0.82869842961E-01  0.94477485823E-01  0.55893411305E-01  0.89068371470E+00  0.88000000000E+00 0.  1.
        -11    1    4    4    0    0  0.35208367463E-01 -0.40507584336E-01 -0.24104955700E-01  0.58837093219E-01  0.51100000000E-03 0. -1.
         11    1    4    4    0    0  0.29477450128E-01 -0.44798748060E-01 -0.45105540858E-01  0.70075807743E-01  0.51100000000E-03 0.  1.
</event>
<event>
 8    1  0.1166736E+005  0.1043930E+01  0.7957747E-01            NaN
         13   -1    0    0    0    0  0.00000000000E+00  0.00000000000E+00  0.74505805969E-08  0.10566000000E+00  0.10566000000E+00 0. -1.
     999900   -1    0    0    0    0 -0.00000000000E+00 -0.00000000000E+00 -0.74505805969E-08  0.93827000000E+00  0.93827000000E+00 0. -1.
     999902    2    1    2    0    0 -0.13408344735E-01 -0.55419095810E-02  0.18768888134E-01  0.10202072760E+01  0.10199314283E+01 0.  0.
     999903    2    3    3    0    0  0.11979186239E+00 -0.44617944743E-01  0.25993246932E-03  0.12913387101E+00  0.18293107744E-01 0.  0.
         14    1    1    2    0    0  0.13408344735E-01  0.55419095810E-02 -0.18768888134E-01  0.23722723961E-01  0.00000000000E+00 0.  1.
     999901    1    3    3    0    0 -0.13320020712E+00  0.39076035162E-01  0.18508955664E-01  0.89107340502E+00  0.88000000000E+00 0. -1.
        -11    1    4    4    0    0  0.50528132296E-01 -0.27613535970E-01 -0.36952458989E-02  0.57701953912E-01  0.51100000000E-03 0.  1.
         11    1    4    4    0    0  0.69263730092E-01 -0.17004408773E-01  0.39551783683E-02  0.71431917102E-01  0.51100000000E-03 0. -1.
</event>
<event>
 8    1  0.1166736E+005  0.1043930E+01  0.7957747E-01            NaN
         13   -1    0    0    0    0  0.00000000000E+00  0.00000000000E+00  0.74505805969E-08  0.10566000000E+00  0.10566000000E+00 0.  1.
     999900   -1    0    0    0    0 -0.00000000000E+00 -0.00000000000E+00 -0.74505805969E-08  0.93827000000E+00  0.93827000000E+00 0.  1.
     999902    2    1    2    0    0  0.17048414914E-01 -0.11301321452E-01 -0.10210229237E-01  0.10210691798E+01  0.10208132312E+01 0.  0.
     999903    2    3    3    0    0  0.11632603690E+00  0.37184031812E-01  0.46935768545E-01  0.13232144241E+00  0.19788852146E-01 0.  0.
         14    1    1    2    0    0 -0.17048414914E-01  0.11301321452E-01  0.10210229237E-01  0.22860820167E-01  0.00000000000E+00 0. -1.
     999901    1    3    3    0    0 -0.99277621990E-01 -0.48485353264E-01 -0.57145997783E-01  0.88874773742E+00  0.88000000000E+00 0.  1.
        -11    1    4    4    0    0  0.55554653477E-01  0.13218781103E-01  0.12448093720E-01  0.58448882411E-01  0.51100000000E-03 0. -1.
         11    1    4    4    0    0  0.60771383427E-01  0.23965250709E-01  0.34487674825E-01  0.73872560001E-01  0.51100000000E-03 0.  1.
</event>
<event>
 8    1  0.1166736E+005  0.1043930E+01  0.7957747E-01            NaN
         13   -1    0    0    0    0  0.00000000000E+00  0.00000000000E+00  0.74505805969E-08  0.10566000000E+00  0.10566000000E+00 0.  1.
     999900   -1    0    0    0    0 -0.00000000000E+00 -0.00000000000E+00 -0.74505805969E-08  0.93827000000E+00  0.93827000000E+00 0.  1.
     999902    2    1    2    0    0  0.18361833867E-01  0.13092172509E-01  0.28376920903E-02  0.10212008465E+01  0.10209478706E+01 0.  0.
     999903    2    3    3    0    0  0.11825628196E+00  0.42375784272E-01 -0.42251631487E-01  0.13391877307E+00  0.19203700147E-01 0.  0.
         14    1    1    2    0    0 -0.18361833867E-01 -0.13092172509E-01 -0.28376920903E-02  0.22729153533E-01  0.00000000000E+00 0. -1.
     999901    1    3    3    0    0 -0.99894448098E-01 -0.29283611763E-01  0.45089323578E-01  0.88728207340E+00  0.88000000000E+00 0.  1.
        -11    1    4    4    0    0  0.10246179442E+00  0.33936434650E-01 -0.29395123812E-01  0.11186793704E+00  0.51100000000E-03 0.  1.
         11    1    4    4    0    0  0.15794487542E-01  0.84393496224E-02 -0.12856507675E-01  0.22050836025E-01  0.51100000000E-03 0. -1.
</event>
<event>
 8    1  0.1166736E+005  0.1043930E+01  0.7957747E-01            NaN
         13   -1    0    0    0    0  0.00000000000E+00  0.00000000000E+00  0.74505805969E-08  0.10566000000E+00  0.10566000000E+00 0.  1.
     999900   -1    0    0    0    0 -0.00000000000E+00 -0.00000000000E+00 -0.74505805969E-08  0.93827000000E+00  0.93827000000E+00 0. -1.
     999902    2    1    2    0    0  0.12007043783E-01 -0.18553992994E-01  0.83377655551E-02  0.10203092868E+01  0.10200358340E+01 0.  0.
     999903    2    3    3    0    0  0.45234092621E-01  0.84530929557E-01 -0.84069881913E-01  0.12886679774E+00  0.18636129653E-01 0.  0.
         14    1    1    2    0    0 -0.12007043783E-01  0.18553992994E-01 -0.83377655551E-02  0.23620713175E-01  0.00000000000E+00 0.  1.
     999901    1    3    3    0    0 -0.33227048838E-01 -0.10308492255E+00  0.92407647468E-01  0.89144248908E+00  0.88000000000E+00 0.  1.
        -11    1    4    4    0    0  0.28580199692E-01  0.45933013196E-01 -0.35887295036E-01  0.64921711174E-01  0.51100000000E-03 0. -1.
         11    1    4    4    0    0  0.16653892929E-01  0.38597916361E-01 -0.48182586877E-01  0.63945086568E-01  0.51100000000E-03 0.  1.
</event>
<event>
 8    1  0.1166736E+005  0.1043930E+01  0.7957747E-01            NaN
         13   -1    0    0    0    0  0.00000000000E+00  0.00000000000E+00  0.74505805969E-08  0.10566000000E+00  0.10566000000E+00 0.  1.
     999900   -1    0    0    0    0 -0.00000000000E+00 -0.00000000000E+00 -0.74505805969E-08  0.93827000000E+00  0.93827000000E+00 0.  1.
     999902    2    1    2    0    0 -0.23573727540E-01  0.19883914973E-02  0.53255753977E-02  0.10196805447E+01  0.10193921606E+01 0.  0.
     999903    2    3    3    0    0 -0.15504801977E-01  0.78522825370E-01  0.10192548473E+00  0.13105566902E+00  0.19507715303E-01 0.  0.
         14    1    1    2    0    0  0.23573727540E-01 -0.19883914973E-02 -0.53255753977E-02  0.24249455338E-01  0.00000000000E+00 0. -1.
     999901    1    3    3    0    0 -0.80689255626E-02 -0.76534433873E-01 -0.96599909332E-01  0.88862487564E+00  0.88000000000E+00 0.  1.
        -11    1    4    4    0    0 -0.41503687528E-02  0.61672479386E-01  0.80893595801E-01  0.10180744195E+00  0.51100000000E-03 0.  1.
         11    1    4    4    0    0 -0.11354433224E-01  0.16850345984E-01  0.21031888929E-01  0.29248227067E-01  0.51100000000E-03 0. -1.
</event>
<event>
 8    1  0.1166736E+005  0.1043930E+01  0.7957747E-01            NaN
         13   -1    0    0    0    0  0.00000000000E+00  0.00000000000E+00  0.74505805969E-08  0.10566000000E+00  0.10566000000E+00 0. -1.
     999900   -1    0    0    0    0 -0.00000000000E+00 -0.00000000000E+00 -0.74505805969E-08  0.93827000000E+00  0.93827000000E+00 0. -1.
     999902    2    1    2    0    0 -0.54152027534E-02 -0.20983727272E-01 -0.10799447029E-01  0.10197170017E+01  0.10194294945E+01 0.  0.
     999903    2    3    3    0    0  0.58094743084E-01 -0.21442186519E-01 -0.11409543956E+00  0.13140186308E+00  0.20344870524E-01 0.  0.
         14    1    1    2    0    0  0.54152027534E-02  0.20983727272E-01  0.10799447029E-01  0.24212998312E-01  0.00000000000E+00 0. -1.
     999901    1    3    3    0    0 -0.63509945838E-01  0.45845924650E-03  0.10329599253E+00  0.88831513861E+00  0.88000000000E+00 0.  1.
        -11    1    4    4    0    0  0.36510776297E-01 -0.22452654269E-01 -0.66348259472E-01  0.78990576181E-01  0.51100000000E-03 0.  1.
         11    1    4    4    0    0  0.21583966788E-01  0.10104677503E-02 -0.47747180086E-01  0.52411286901E-01  0.51100000000E-03 0. -1.
</event>
<event>
 8    1  0.1166736E+005  0.1043930E+01  0.7957747E-01            NaN
         13   -1    0    0    0    0  0.00000000000E+00  0.00000000000E+00  0.74505805969E-08  0.10566000000E+00  0.10566000000E+00 0.  1.
     999900   -1    0    0    0    0 -0.00000000000E+00 -0.00000000000E+00 -0.74505805969E-08  0.93827000000E+00  0.93827000000E+00 0.  1.
     999902    2    1    2    0    0  0.84602598463E-02  0.18532397867E-01 -0.12772601021E-01  0.10198849360E+01  0.10196014503E+01 0.  0.
     999903    2    3    3    0    0 -0.88104188249E-01 -0.25879390689E-01  0.86852326753E-01  0.12790835229E+00  0.19624705698E-01 0.  0.
         14    1    1    2    0    0 -0.84602598463E-02 -0.18532397867E-01  0.12772601021E-01  0.24045064030E-01  0.00000000000E+00 0.  1.
     999901    1    3    3    0    0  0.96564448095E-01  0.44411788556E-01 -0.99624927774E-01  0.89197658368E+00  0.88000000000E+00 0.  1.
        -11    1    4    4    0    0 -0.38011961540E-01 -0.19701143681E-01  0.32662681564E-01  0.53853098057E-01  0.51100000000E-03 0.  1.
         11    1    4    4    0    0 -0.50092226709E-01 -0.61782470082E-02  0.54189645189E-01  0.74055254233E-01  0.51100000000E-03 0. -1.
</event>
<event>
 8    1  0.1166736E+005  0.1043930E+01  0.7957747E-01            NaN
         13   -1    0    0    0    0  0.00000000000E+00  0.00000000000E+00  0.74505805969E-08  0.10566000000E+00  0.10566000000E+00 0. -1.
     999900   -1    0    0    0    0 -0.00000000000E+00 -0.00000000000E+00 -0.74505805969E-08  0.93827000000E+00  0.93827000000E+00 0.  1.
     999902    2    1    2    0    0  0.87136367716E-02  0.26257604255E-02 -0.25149726803E-01  0.10171843304E+01  0.10168326466E+01 0.  0.
     999903    2    3    3    0    0 -0.72791615231E-02 -0.81783227053E-02 -0.12886979718E+00  0.13088282933E+00  0.20075338949E-01 0.  0.
         14    1    1    2    0    0 -0.87136367716E-02 -0.26257604255E-02  0.25149726803E-01  0.26745669591E-01  0.00000000000E+00 0. -1.
     999901    1    3    3    0    0  0.15992798295E-01  0.10804083131E-01  0.10372007038E+00  0.88630150108E+00  0.88000000000E+00 0. -1.
        -11    1    4    4    0    0 -0.29411966203E-02 -0.89054222728E-02 -0.21996853835E-01  0.23918191467E-01  0.51100000000E-03 0. -1.
         11    1    4    4    0    0 -0.43379649028E-02  0.72709956746E-03 -0.10687294335E+00  0.10696463787E+00  0.51100000000E-03 0.  1.
</event>
<event>
 8    1  0.1166736E+005  0.1043930E+01  0.7957747E-01            NaN
         13   -1    0    0    0    0  0.00000000000E+00  0.00000000000E+00  0.74505805969E-08  0.10566000000E+00  0.10566000000E+00 0. -1.
     999900   -1    0    0    0    0 -0.00000000000E+00 -0.00000000000E+00 -0.74505805969E-08  0.93827000000E+00  0.93827000000E+00 0. -1.
     999902    2    1    2    0    0  0.20149404775E-01 -0.11902523928E-01  0.22820498629E-02  0.10204166774E+01  0.10201457343E+01 0.  0.
     999903    2    3    3    0    0  0.19148876697E-01  0.12460486129E+00  0.23956818266E-01  0.12962766597E+00  0.18339893931E-01 0.  0.
         14    1    1    2    0    0 -0.20149404775E-01  0.11902523928E-01 -0.22820498629E-02  0.23513322611E-01  0.00000000000E+00 0. -1.
     999901    1    3    3    0    0  0.10005280779E-02 -0.13650738521E+00 -0.21674768403E-01  0.89078901142E+00  0.88000000000E+00 0.  1.
        -11    1    4    4    0    0  0.24610598639E-02  0.38927810035E-01  0.15332892088E-01  0.41914077713E-01  0.51100000000E-03 0.  1.
         11    1    4    4    0    0  0.16687816833E-01  0.85677051251E-01  0.86239261782E-02  0.87713588260E-01  0.51100000000E-03 0. -1.
</event>
<event>
 8    1  0.1166736E+005  0.1043930E+01  0.7957747E-01            NaN
         13   -1    0    0    0    0  0.00000000000E+00  0.00000000000E+00  0.74505805969E-08  0.10566000000E+00  0.10566000000E+00 0. -1.
     999900   -1    0    0    0    0 -0.00000000000E+00 -0.00000000000E+00 -0.74505805969E-08  0.93827000000E+00  0.93827000000E+00 0.  1.
     999902    2    1    2    0    0  0.62656085282E-02  0.15277751142E-01  0.17091712852E-01  0.10201646012E+01  0.10198877484E+01 0.  0.
     999903    2    3    3    0    0  0.10196181849E+00  0.79437111827E-01 -0.18028056860E-01  0.13195990276E+00  0.19543232509E-01 0.  0.
         14    1    1    2    0    0 -0.62656085282E-02 -0.15277751142E-01 -0.17091712852E-01  0.23765398764E-01  0.00000000000E+00 0.  1.
     999901    1    3    3    0    0 -0.95696209966E-01 -0.64159360685E-01  0.35119769712E-01  0.88820469847E+00  0.88000000000E+00 0.  1.
        -11    1    4    4    0    0  0.49258473724E-01  0.31061421363E-01 -0.15982642419E-01  0.60389693743E-01  0.51100000000E-03 0. -1.
         11    1    4    4    0    0  0.52703344771E-01  0.48375690464E-01 -0.20454144406E-02  0.71570209020E-01  0.51100000000E-03 0.  1.
</event>
<event>
 8    1  0.1166736E+005  0.1043930E+01  0.7957747E-01            NaN
         13   -1    0    0    0    0  0.00000000000E+00  0.00000000000E+00  0.74505805969E-08  0.10566000000E+00  0.10566000000E+00 0.  1.
     999900   -1    0    0    0    0 -0.00000000000E+00 -0.00000000000E+00 -0.74505805969E-08  0.93827000000E+00  0.93827000000E+00 0.  1.
     999902    2    1    2    0    0  0.15288505840E-02  0.23993160563E-02  0.23827751782E-01  0.10199330032E+01  0.10196506633E+01 0.  0.
     999903    2    3    3    0    0  0.28911345063E-03  0.37897016776E-01 -0.11938132376E+00  0.12764915651E+00  0.24619894948E-01 0.  0.
         14    1    1    2    0    0 -0.15288505840E-02 -0.23993160563E-02 -0.23827751782E-01  0.23996996825E-01  0.00000000000E+00 0. -1.
     999901    1    3    3    0    0  0.12397371334E-02 -0.35497700720E-01  0.14320907554E+00  0.89228384667E+00  0.88000000000E+00 0. -1.
        -11    1    4    4    0    0  0.11145477175E-01  0.18903432159E-01 -0.44241146485E-01  0.49387261234E-01  0.51100000000E-03 0. -1.
         11    1    4    4    0    0 -0.10856363725E-01  0.18993584617E-01 -0.75140177276E-01  0.78261895275E-01  0.51100000000E-03 0.  1.
</event>
<event>
 8    1  0.1166736E+005  0.1043930E+01  0.7957747E-01            NaN
         13   -1    0    0    0    0  0.00000000000E+00  0.00000000000E+00  0.74505805969E-08  0.10566000000E+00  0.10566000000E+00 0.  1.
     999900   -1    0    0    0    0 -0.00000000000E+00 -0.00000000000E+00 -0.74505805969E-08  0.93827000000E+00  0.93827000000E+00 0.  1.
     999902    2    1    2    0    0  0.22721633894E-01 -0.36606234960E-03  0.87460966381E-02  0.10195804445E+01  0.10192896457E+01 0.  0.
     999903    2    3    3    0    0 -0.62727864266E-01 -0.22469585422E-01 -0.10693942684E+00  0.12763127393E+00  0.20347821714E-01 0.  0.
         14    1    1    2    0    0 -0.22721633894E-01  0.36606234960E-03 -0.87460966381E-02  0.24349555537E-01  0.00000000000E+00 0.  1.
     999901    1    3    3    0    0  0.85449498160E-01  0.22103523073E-01  0.11568552348E+00  0.89194917053E+00  0.88000000000E+00 0. -1.
        -11    1    4    4    0    0 -0.20133817636E-01 -0.54230773822E-02 -0.52160814031E-01  0.56176436539E-01  0.51100000000E-03 0.  1.
         11    1    4    4    0    0 -0.42594046630E-01 -0.17046508040E-01 -0.54778612808E-01  0.71454837393E-01  0.51100000000E-03 0. -1.
</event>
<event>
 8    1  0.1166736E+005  0.1043930E+01  0.7957747E-01            NaN
         13   -1    0    0    0    0  0.00000000000E+00  0.00000000000E+00  0.74505805969E-08  0.10566000000E+00  0.10566000000E+00 0. -1.
     999900   -1    0    0    0    0 -0.00000000000E+00 -0.00000000000E+00 -0.74505805969E-08  0.93827000000E+00  0.93827000000E+00 0.  1.
     999902    2    1    2    0    0 -0.76276686371E-02  0.22618073304E-01  0.13280487143E-02  0.10200234678E+01  0.10197432778E+01 0.  0.
     999903    2    3    3    0    0  0.25018114046E-02  0.13186385610E+00 -0.43530465032E-02  0.13319229882E+00  0.18080482398E-01 0.  0.
         14    1    1    2    0    0  0.76276686371E-02 -0.22618073304E-01 -0.13280487143E-02  0.23906532208E-01  0.00000000000E+00 0.  1.
     999901    1    3    3    0    0 -0.10129480042E-01 -0.10924578280E+00  0.56810952175E-02  0.88683116898E+00  0.88000000000E+00 0.  1.
        -11    1    4    4    0    0  0.52651898425E-03  0.88580193578E-01  0.55023117597E-02  0.88753954685E-01  0.51100000000E-03 0.  1.
         11    1    4    4    0    0  0.19752924204E-02  0.43283662523E-01 -0.98553582629E-02  0.44438344131E-01  0.51100000000E-03 0. -1.
</event>
<event>
 8    1  0.1166736E+005  0.1043930E+01  0.7957747E-01            NaN
         13   -1    0    0    0    0  0.00000000000E+00  0.00000000000E+00  0.74505805969E-08  0.10566000000E+00  0.10566000000E+00 0. -1.
     999900   -1    0    0    0    0 -0.00000000000E+00 -0.00000000000E+00 -0.74505805969E-08  0.93827000000E+00  0.93827000000E+00 0. -1.
     999902    2    1    2    0    0  0.15677994181E-01  0.55372033800E-02 -0.16747608286E-01  0.10203303706E+01  0.10200574115E+01 0.  0.
     999903    2    3    3    0    0  0.90521387185E-02 -0.52753890540E-01  0.11518598885E+00  0.12856345734E+00  0.19895636572E-01 0.  0.
         14    1    1    2    0    0 -0.15677994181E-01 -0.55372033800E-02  0.16747608286E-01  0.23599629364E-01  0.00000000000E+00 0. -1.
     999901    1    3    3    0    0  0.66258554623E-02  0.58291093920E-01 -0.13193359713E+00  0.89176691329E+00  0.88000000000E+00 0. -1.
        -11    1    4    4    0    0 -0.10508552981E-02 -0.31182318813E-02  0.24187938180E-01  0.24416083660E-01  0.51100000000E-03 0.  1.
         11    1    4    4    0    0  0.10102994017E-01 -0.49635658658E-01  0.90998050669E-01  0.10414737368E+00  0.51100000000E-03 0. -1.
</event>
<event>
 8    1  0.1166736E+005  0.1043930E+01  0.7957747E-01            NaN
         13   -1    0    0    0    0  0.00000000000E+00  0.00000000000E+00  0.74505805969E-08  0.10566000000E+00  0.10566000000E+00 0.  1.
     999900   -1    0    0    0    0 -0.00000000000E+00 -0.00000000000E+00 -0.74505805969E-08  0.93827000000E+00  0.93827000000E+00 0. -1.
     999902    2    1    2    0    0  0.19768214570E-01 -0.53836052046E-02  0.19448569404E-01  0.10156808874E+01  0.10152879654E+01 0.  0.
     999903    2    3    3    0    0  0.63730982856E-01  0.10746116450E+00  0.15382513691E-01  0.12737733573E+00  0.19463398441E-01 0.  0.
         14    1    1    2    0    0 -0.19768214570E-01  0.53836052046E-02 -0.19448569404E-01  0.28249112626E-01  0.00000000000E+00 0. -1.
     999901    1    3    3    0    0 -0.43962768286E-01 -0.11284476971E+00  0.40660557134E-02  0.88830355164E+00  0.88000000000E+00 0.  1.
        -11    1    4    4    0    0  0.21231727324E-01  0.31759254576E-01  0.13560069318E-01  0.40541005134E-01  0.51100000000E-03 0. -1.
         11    1    4    4    0    0  0.42499255532E-01  0.75701909928E-01  0.18224443730E-02  0.86836330600E-01  0.51100000000E-03 0.  1.
</event>
<event>
 8    1  0.1166736E+005  0.1043930E+01  0.7957747E-01            NaN
         13   -1    0    0    0    0  0.00000000000E+00  0.00000000000E+00  0.74505805969E-08  0.10566000000E+00  0.10566000000E+00 0.  1.
     999900   -1    0    0    0    0 -0.00000000000E+00 -0.00000000000E+00 -0.74505805969E-08  0.93827000000E+00  0.93827000000E+00 0.  1.
     999902    2    1    2    0    0 -0.10376602404E-02 -0.72652802410E-02  0.22044954864E-01  0.10206955198E+01  0.10204310379E+01 0.  0.
     999903    2    3    3    0    0  0.81969840377E-01 -0.28218638086E-01  0.99218208990E-01  0.13317932303E+00  0.19419907815E-01 0.  0.
         14    1    1    2    0    0  0.10376602404E-02  0.72652802410E-02 -0.22044954864E-01  0.23234480211E-01  0.00000000000E+00 0. -1.
     999901    1    3    3    0    0 -0.83007500617E-01  0.20953357845E-01 -0.77173254127E-01  0.88751619676E+00  0.88000000000E+00 0.  1.
        -11    1    4    4    0    0  0.50063503201E-01 -0.71339483642E-02  0.55065512036E-01  0.74764425423E-01  0.51100000000E-03 0.  1.
         11    1    4    4    0    0  0.31906337176E-01 -0.21084689722E-01  0.44152696954E-01  0.58414897603E-01  0.51100000000E-03 0. -1.
</event>
<event>
 8    1  0.1166736E+005  0.1043930E+01  0.7957747E-01            NaN
         13   -1    0    0    0    0  0.00000000000E+00  0.00000000000E+00  0.74505805969E-08  0.10566000000E+00  0.10566000000E+00 0. -1.
     999900   -1    0    0    0    0 -0.00000000000E+00 -0.00000000000E+00 -0.74505805969E-08  0.93827000000E+00  0.93827000000E+00 0. -1.
     999902    2    1    2    0    0  0.14789748722E-01  0.13768429133E-01  0.15781459245E-01  0.10182909524E+01  0.10179681247E+01 0.  0.
     999903    2    3    3    0    0  0.34722148701E-01  0.10382879383E+00 -0.66481378605E-01  0.12965416247E+00  0.20109254219E-01 0.  0.
         14    1    1    2    0    0 -0.14789748722E-01 -0.13768429133E-01 -0.15781459245E-01  0.25639047641E-01  0.00000000000E+00 0.  1.
     999901    1    3    3    0    0 -0.19932399979E-01 -0.90060364698E-01  0.82262837849E-01  0.88863678989E+00  0.88000000000E+00 0.  1.
        -11    1    4    4    0    0  0.23708850365E-01  0.66737135992E-01 -0.53771863569E-01  0.88924852200E-01  0.51100000000E-03 0. -1.
         11    1    4    4    0    0  0.11013298336E-01  0.37091657838E-01 -0.12709515036E-01  0.40729310268E-01  0.51100000000E-03 0.  1.
</event>
<event>
 8    1  0.1166736E+005  0.1043930E+01  0.7957747E-01            NaN
         13   -1    0    0    0    0  0.00000000000E+00  0.00000000000E+00  0.74505805969E-08  0.10566000000E+00  0.10566000000E+00 0.  1.
     999900   -1    0    0    0    0 -0.00000000000E+00 -0.00000000000E+00 -0.74505805969E-08  0.93827000000E+00  0.93827000000E+00 0.  1.
     999902    2    1    2    0    0  0.89664564845E-03  0.38141762176E-02 -0.22899271130E-01  0.10206979417E+01  0.10204335156E+01 0.  0.
     999903    2    3    3    0    0 -0.12518317439E+00 -0.31837446903E-01 -0.68017643522E-02  0.13085172524E+00  0.19785343727E-01 0.  0.
         14    1    1    2    0    0 -0.89664564845E-03 -0.38141762176E-02  0.22899271130E-01  0.23232058280E-01  0.00000000000E+00 0.  1.
     999901    1    3    3    0    0  0.12607982003E+00  0.35651623120E-01 -0.16097506778E-01  0.88984621648E+00  0.88000000000E+00 0.  1.
        -11    1    4    4    0    0 -0.36697216809E-01 -0.36387407752E-03 -0.21945859164E-03  0.36703234312E-01  0.51100000000E-03 0.  1.
         11    1    4    4    0    0 -0.88485957577E-01 -0.31473572825E-01 -0.65823057606E-02  0.94148490932E-01  0.51100000000E-03 0. -1.
</event>
<event>
 8    1  0.1166736E+005  0.1043930E+01  0.7957747E-01            NaN
         13   -1    0    0    0    0  0.00000000000E+00  0.00000000000E+00  0.74505805969E-08  0.10566000000E+00  0.10566000000E+00 0.  1.
     999900   -1    0    0    0    0 -0.00000000000E+00 -0.00000000000E+00 -0.74505805969E-08  0.93827000000E+00  0.93827000000E+00 0.  1.
     999902    2    1    2    0    0 -0.15883461975E-01 -0.12481271368E-01 -0.18560172769E-01  0.10164974188E+01  0.10161271849E+01 0.  0.
     999903    2    3    3    0    0 -0.10267069598E-01  0.40104418266E-01  0.11590639920E+00  0.12471378045E+00  0.20135952317E-01 0.  0.
         14    1    1    2    0    0  0.15883461975E-01  0.12481271368E-01  0.18560172769E-01  0.27432581222E-01  0.00000000000E+00 0.  1.
     999901    1    3    3    0    0 -0.56163923768E-02 -0.52585689633E-01 -0.13446657197E+00  0.89178363833E+00  0.88000000000E+00 0.  1.
        -11    1    4    4    0    0 -0.34004516882E-02  0.38163398321E-01  0.10386239984E+00  0.11070531724E+00  0.51100000000E-03 0.  1.
         11    1    4    4    0    0 -0.68666179102E-02  0.19410199448E-02  0.12043999355E-01  0.14008463207E-01  0.51100000000E-03 0. -1.
</event>
<event>
 8    1  0.1166736E+005  0.1043930E+01  0.7957747E-01            NaN
         13   -1    0    0    0    0  0.00000000000E+00  0.00000000000E+00  0.74505805969E-08  0.10566000000E+00  0.10566000000E+00 0. -1.
     999900   -1    0    0    0    0 -0.00000000000E+00 -0.00000000000E+00 -0.74505805969E-08  0.93827000000E+00  0.93827000000E+00 0.  1.
     999902    2    1    2    0    0  0.29141678693E-02 -0.60411126935E-02 -0.22640541467E-01  0.10203168356E+01  0.10200435596E+01 0.  0.
     999903    2    3    3    0    0  0.12473180290E+00  0.20822469899E-03 -0.37193352601E-01  0.13178412669E+00  0.20631155042E-01 0.  0.
         14    1    1    2    0    0 -0.29141678693E-02  0.60411126935E-02  0.22640541467E-01  0.23613164440E-01  0.00000000000E+00 0. -1.
     999901    1    3    3    0    0 -0.12181763503E+00 -0.62493373925E-02  0.14552811134E-01  0.88853270887E+00  0.88000000000E+00 0. -1.
        -11    1    4    4    0    0  0.81805088097E-01  0.42438132603E-02 -0.33517983425E-01  0.88508749418E-01  0.51100000000E-03 0. -1.
         11    1    4    4    0    0  0.42926714798E-01 -0.40355885613E-02 -0.36753691767E-02  0.43275377272E-01  0.51100000000E-03 0.  1.
</event>
<event>
 8    1  0.1166736E+005  0.1043930E+01  0.7957747E-01            NaN
         13   -1    0    0    0    0  0.00000000000E+00  0.00000000000E+00  0.74505805969E-08  0.10566000000E+00  0.10566000000E+00 0. -1.
     999900   -1    0    0    0    0 -0.00000000000E+00 -0.00000000000E+00 -0.74505805969E-08  0.93827000000E+00  0.93827000000E+00 0.  1.
     999902    2    1    2    0    0 -0.19824627927E-01  0.11732277654E-01 -0.18129887135E-02  0.10208226605E+01  0.10205610981E+01 0.  0.
     999903    2    3    3    0    0 -0.50690685107E-01  0.81514982827E-01  0.89813190064E-01  0.13278116592E+00  0.18713389121E-01 0.  0.
         14    1    1    2    0    0  0.19824627927E-01 -0.11732277654E-01  0.18129887135E-02  0.23107339515E-01  0.00000000000E+00 0. -1.
     999901    1    3    3    0    0  0.30866057180E-01 -0.69782705173E-01 -0.91626178777E-01  0.88804149456E+00  0.88000000000E+00 0.  1.
        -11    1    4    4    0    0 -0.13258818429E-01  0.26410434259E-01  0.39321429938E-01  0.49190886120E-01  0.51100000000E-03 0.  1.
         11    1    4    4    0    0 -0.37431866678E-01  0.55104548568E-01  0.50491760125E-01  0.83590279803E-01  0.51100000000E-03 0. -1.
</event>
<event>
 8    1  0.1166736E+005  0.1043930E+01  0.7957747E-01            NaN
         13   -1    0    0    0    0  0.00000000000E+00  0.00000000000E+00  0.74505805969E-08  0.10566000000E+00  0.10566000000E+00 0. -1.
     999900   -1    0    0    0    0 -0.00000000000E+00 -0.00000000000E+00 -0.74505805969E-08  0.93827000000E+00  0.93827000000E+00 0. -1.
     999902    2    1    2    0    0  0.22492917636E-01  0.22247335527E-02  0.63332621943E-02  0.10204568027E+01  0.10201867942E+01 0.  0.
     999903    2    3    3    0    0 -0.14426592072E-01  0.12653680564E+00  0.21768221165E-01  0.13081935998E+00  0.20497798738E-01 0.  0.
         14    1    1    2    0    0 -0.22492917636E-01 -0.22247335527E-02 -0.63332621943E-02  0.23473197336E-01  0.00000000000E+00 0. -1.
     999901    1    3    3    0    0  0.36919509707E-01 -0.12431207209E+00 -0.15434958970E-01  0.88963744268E+00  0.88000000000E+00 0. -1.
        -11    1    4    4    0    0 -0.17398030094E-02  0.66827358743E-01  0.19881582731E-01  0.69745689788E-01  0.51100000000E-03 0.  1.
         11    1    4    4    0    0 -0.12686789062E-01  0.59709446897E-01  0.18866384337E-02  0.61073670194E-01  0.51100000000E-03 0. -1.
</event>
<event>
 8    1  0.1166736E+005  0.1043930E+01  0.7957747E-01            NaN
         13   -1    0    0    0    0  0.00000000000E+00  0.00000000000E+00  0.74505805969E-08  0.10566000000E+00  0.10566000000E+00 0.  1.
     999900   -1    0    0    0    0 -0.00000000000E+00 -0.00000000000E+00 -0.74505805969E-08  0.93827000000E+00  0.93827000000E+00 0. -1.
     999902    2    1    2    0    0  0.12077652083E-01  0.16086346072E-01  0.11682275863E-01  0.10206681046E+01  0.10204029909E+01 0.  0.
     999903    2    3    3    0    0 -0.10649829043E+00 -0.10445671054E-01 -0.69676618762E-01  0.12860113858E+00  0.15245449599E-01 0.  0.
         14    1    1    2    0    0 -0.12077652083E-01 -0.16086346072E-01 -0.11682275863E-01  0.23261895433E-01  0.00000000000E+00 0. -1.
     999901    1    3    3    0    0  0.11857594251E+00  0.26532017126E-01  0.81358894625E-01  0.89206696599E+00  0.88000000000E+00 0.  1.
        -11    1    4    4    0    0 -0.61752402528E-01 -0.86162013503E-02 -0.32052729871E-01  0.70108749503E-01  0.51100000000E-03 0. -1.
         11    1    4    4    0    0 -0.44745887899E-01 -0.18294697032E-02 -0.37623888891E-01  0.58492389074E-01  0.51100000000E-03 0.  1.
</event>
<event>
 8    1  0.1166736E+005  0.1043930E+01  0.7957747E-01            NaN
         13   -1    0    0    0    0  0.00000000000E+00  0.00000000000E+00  0.74505805969E-08  0.10566000000E+00  0.10566000000E+00 0. -1.
     999900   -1    0    0    0    0 -0.00000000000E+00 -0.00000000000E+00 -0.74505805969E-08  0.93827000000E+00  0.93827000000E+00 0. -1.
     999902    2    1    2    0    0 -0.18400774694E-01 -0.11846503215E-02 -0.15696648587E-01  0.10197147841E+01  0.10194272236E+01 0.  0.
     999903    2    3    3    0    0  0.57561110597E-01  0.93801134313E-01 -0.66001295553E-01  0.12992657061E+00  0.20317688966E-01 0.  0.
         14    1    1    2    0    0  0.18400774694E-01  0.11846503215E-02  0.15696648587E-01  0.24215215931E-01  0.00000000000E+00 0.  1.
     999901    1    3    3    0    0 -0.75961885291E-01 -0.94985784634E-01  0.50304646967E-01  0.88978821346E+00  0.88000000000E+00 0.  1.
        -11    1    4    4    0    0  0.39889899008E-01  0.77728558509E-01 -0.57380761767E-01  0.10452629235E+00  0.51100000000E-03 0. -1.
         11    1    4    4    0    0  0.17671211589E-01  0.16072575804E-01 -0.86205337866E-02  0.25400278262E-01  0.51100000000E-03 0.  1.
</event>
<event>
 8    1  0.1166736E+005  0.1043930E+01  0.7957747E-01            NaN
         13   -1    0    0    0    0  0.00000000000E+00  0.00000000000E+00  0.74505805969E-08  0.10566000000E+00  0.10566000000E+00 0. -1.
     999900   -1    0    0    0    0 -0.00000000000E+00 -0.00000000000E+00 -0.74505805969E-08  0.93827000000E+00  0.93827000000E+00 0.  1.
     999902    2    1    2    0    0 -0.12622522160E-01 -0.16675159232E-01 -0.10958792336E-01  0.10203188982E+01  0.10200456704E+01 0.  0.
     999903    2    3    3    0    0 -0.16449917967E-01  0.12551106988E+00  0.77295673972E-02  0.12870192462E+00  0.21927396659E-01 0.  0.
         14    1    1    2    0    0  0.12622522160E-01  0.16675159232E-01  0.10958792336E-01  0.23611101849E-01  0.00000000000E+00 0.  1.
     999901    1    3    3    0    0  0.38273958074E-02 -0.14218622911E+00 -0.18688359733E-01  0.89161697354E+00  0.88000000000E+00 0.  1.
        -11    1    4    4    0    0 -0.79549722367E-03  0.75273514285E-01  0.10491023701E-01  0.76006956708E-01  0.51100000000E-03 0.  1.
         11    1    4    4    0    0 -0.15654420744E-01  0.50237555593E-01 -0.27614563036E-02  0.52694967907E-01  0.51100000000E-03 0. -1.
</event>
<event>
 8    1  0.1166736E+005  0.1043930E+01  0.7957747E-01            NaN
         13   -1    0    0    0    0  0.00000000000E+00  0.00000000000E+00  0.74505805969E-08  0.10566000000E+00  0.10566000000E+00 0.  1.
     999900   -1    0    0    0    0 -0.00000000000E+00 -0.00000000000E+00 -0.74505805969E-08  0.93827000000E+00  0.93827000000E+00 0.  1.
     999902    2    1    2    0    0  0.13042042783E-01  0.84027098665E-02 -0.17794419635E-01  0.10203219128E+01  0.10200487556E+01 0.  0.
     999903    2    3    3    0    0 -0.67134498923E-01 -0.85391704908E-01 -0.69140040636E-01  0.13023088209E+00  0.19518022888E-01 0.  0.
         14    1    1    2    0    0 -0.13042042783E-01 -0.84027098665E-02  0.17794419635E-01  0.23608087242E-01  0.00000000000E+00 0.  1.
     999901    1    3    3    0    0  0.80176541706E-01  0.93794414775E-01  0.51345621001E-01  0.89009103067E+00  0.88000000000E+00 0. -1.
        -11    1    4    4    0    0 -0.59816562769E-01 -0.74215189082E-01 -0.67413748802E-01  0.11675097482E+00  0.51100000000E-03 0. -1.
         11    1    4    4    0    0 -0.73179361547E-02 -0.11176515827E-01 -0.17262918349E-02  0.13479907273E-01  0.51100000000E-03 0.  1.
</event>
<event>
 8    1  0.1166736E+005  0.1043930E+01  0.7957747E-01            NaN
         13   -1    0    0    0    0  0.00000000000E+00  0.00000000000E+00  0.74505805969E-08  0.10566000000E+00  0.10566000000E+00 0. -1.
     999900   -1    0    0    0    0 -0.00000000000E+00 -0.00000000000E+00 -0.74505805969E-08  0.93827000000E+00  0.93827000000E+00 0. -1.
     999902    2    1    2    0    0 -0.19463245335E-01 -0.31267226437E-02  0.12696323366E-01  0.10204823788E+01  0.10202129653E+01 0.  0.
     999903    2    3    3    0    0 -0.10717051179E+00 -0.61014466620E-01  0.47635847094E-01  0.13354138537E+00  0.18863826345E-01 0.  0.
         14    1    1    2    0    0  0.19463245335E-01  0.31267226437E-02 -0.12696323366E-01  0.23447621211E-01  0.00000000000E+00 0.  1.
     999901    1    3    3    0    0  0.87707266451E-01  0.57887743976E-01 -0.34939523728E-01  0.88694099342E+00  0.88000000000E+00 0. -1.
        -11    1    4    4    0    0 -0.62748445686E-01 -0.29077608220E-01  0.18680817669E-01  0.71638738163E-01  0.51100000000E-03 0.  1.
         11    1    4    4    0    0 -0.44422066100E-01 -0.31936858400E-01  0.28955029425E-01  0.61902647206E-01  0.51100000000E-03 0. -1.
</event>
<event>
 8    1  0.1166736E+005  0.1043930E+01  0.7957747E-01            NaN
         13   -1    0    0    0    0  0.00000000000E+00  0.00000000000E+00  0.74505805969E-08  0.10566000000E+00  0.10566000000E+00 0.  1.
     999900   -1    0    0    0    0 -0.00000000000E+00 -0.00000000000E+00 -0.74505805969E-08  0.93827000000E+00  0.93827000000E+00 0.  1.
     999902    2    1    2    0    0 -0.18201670599E-01  0.14546836377E-01 -0.40853675517E-02  0.10202741024E+01  0.10199998248E+01 0.  0.
     999903    2    3    3    0    0 -0.12586587947E+00 -0.12405911070E-01  0.34412946040E-01  0.13246773132E+00  0.19165665677E-01 0.  0.
         14    1    1    2    0    0  0.18201670599E-01 -0.14546836377E-01  0.40853675517E-02  0.23655897557E-01  0.00000000000E+00 0.  1.
     999901    1    3    3    0    0  0.10766420887E+00  0.26952747447E-01 -0.38498313591E-01  0.88780637113E+00  0.88000000000E+00 0.  1.
        -11    1    4    4    0    0 -0.32388000048E-01 -0.10441614006E-01  0.13786369513E-01  0.36719680766E-01  0.51100000000E-03 0.  1.
         11    1    4    4    0    0 -0.93477879420E-01 -0.19642970638E-02  0.20626576527E-01  0.95748050550E-01  0.51100000000E-03 0. -1.
</event>
<event>
 8    1  0.1166736E+005  0.1043930E+01  0.7957747E-01            NaN
         13   -1    0    0    0    0  0.00000000000E+00  0.00000000000E+00  0.74505805969E-08  0.10566000000E+00  0.10566000000E+00 0.  1.
     999900   -1    0    0    0    0 -0.00000000000E+00 -0.00000000000E+00 -0.74505805969E-08  0.93827000000E+00  0.93827000000E+00 0. -1.
     999902    2    1    2    0    0  0.14416531600E-01  0.19317800965E-01  0.35076517447E-02  0.10195718917E+01  0.10192808862E+01 0.  0.
     999903    2    3    3    0    0  0.73007544866E-01  0.10503212998E+00  0.31769329682E-01  0.13301756431E+00  0.17959180709E-01 0.  0.
         14    1    1    2    0    0 -0.14416531600E-01 -0.19317800965E-01 -0.35076517447E-02  0.24358108265E-01  0.00000000000E+00 0. -1.
     999901    1    3    3    0    0 -0.58591013266E-01 -0.85714329013E-01 -0.28261677937E-01  0.88655432742E+00  0.88000000000E+00 0.  1.
        -11    1    4    4    0    0  0.35535100148E-01  0.54550577920E-01  0.25165135208E-01  0.69800100609E-01  0.51100000000E-03 0. -1.
         11    1    4    4    0    0  0.37472444718E-01  0.50481552058E-01  0.66041944741E-02  0.63217463702E-01  0.51100000000E-03 0.  1.
</event>
<event>
 8    1  0.1166736E+005  0.1043930E+01  0.7957747E-01            NaN
         13   -1    0    0    0    0  0.00000000000E+00  0.00000000000E+00  0.74505805969E-08  0.10566000000E+00  0.10566000000E+00 0.  1.
     999900   -1    0    0    0    0 -0.00000000000E+00 -0.00000000000E+00 -0.74505805969E-08  0.93827000000E+00  0.93827000000E+00 0. -1.
     999902    2    1    2    0    0  0.19835786073E-01  0.29587493323E-02  0.24785654100E-02  0.10237221824E+01  0.10235227163E+01 0.  0.
     999903    2    3    3    0    0  0.10779833091E+00  0.80072271924E-01  0.54370146775E-02  0.13597635327E+00  0.20687161309E-01 0.  0.
         14    1    1    2    0    0 -0.19835786073E-01 -0.29587493323E-02 -0.24785654100E-02  0.20207817626E-01  0.00000000000E+00 0. -1.
     999901    1    3    3    0    0 -0.87962544838E-01 -0.77113522592E-01 -0.29584492675E-02  0.88774582910E+00  0.88000000000E+00 0. -1.
        -11    1    4    4    0    0  0.11954533779E-01  0.10159640556E-01  0.73370909180E-02  0.17326950056E-01  0.51100000000E-03 0.  1.
         11    1    4    4    0    0  0.95843797131E-01  0.69912631368E-01 -0.19000762405E-02  0.11864940322E+00  0.51100000000E-03 0. -1.
</event>
<event>
 8    1  0.1166736E+005  0.1043930E+01  0.7957747E-01            NaN
         13   -1    0    0    0    0  0.00000000000E+00  0.00000000000E+00  0.74505805969E-08  0.10566000000E+00  0.10566000000E+00 0.  1.
     999900   -1    0    0    0    0 -0.00000000000E+00 -0.00000000000E+00 -0.74505805969E-08  0.93827000000E+00  0.93827000000E+00 0. -1.
     999902    2    1    2    0    0 -0.66971275498E-02 -0.12643556982E-01 -0.18094615753E-01  0.10208621399E+01  0.10206014807E+01 0.  0.
     999903    2    3    3    0    0 -0.11697697446E-01  0.12562998290E+00 -0.24700543691E-01  0.13002645594E+00  0.19417354508E-01 0.  0.
         14    1    1    2    0    0  0.66971275498E-02  0.12643556982E-01  0.18094615753E-01  0.23067860105E-01  0.00000000000E+00 0.  1.
     999901    1    3    3    0    0  0.50005698959E-02 -0.13827353988E+00  0.66059279374E-02  0.89083568396E+00  0.88000000000E+00 0.  1.
        -11    1    4    4    0    0 -0.17023420757E-01  0.10039192850E+00 -0.18506242746E-01  0.10349433948E+00  0.51100000000E-03 0.  1.
         11    1    4    4    0    0  0.53257233109E-02  0.25238054397E-01 -0.61943009442E-02  0.26532116457E-01  0.51100000000E-03 0. -1.
</event>
<event>
 8    1  0.1166736E+005  0.1043930E+01  0.7957747E-01            NaN
         13   -1    0    0    0    0  0.00000000000E+00  0.00000000000E+00  0.74505805969E-08  0.10566000000E+00  0.10566000000E+00 0.  1.
     999900   -1    0    0    0    0 -0.00000000000E+00 -0.00000000000E+00 -0.74505805969E-08  0.93827000000E+00  0.93827000000E+00 0.  1.
     999902    2    1    2    0    0 -0.20557553033E-01 -0.93692757626E-02  0.54779721625E-02  0.10206833982E+01  0.10204186371E+01 0.  0.
     999903    2    3    3    0    0 -0.18592868330E-01  0.12932407121E-01  0.12835472154E+00  0.13186400117E+00  0.20005958002E-01 0.  0.
         14    1    1    2    0    0  0.20557553033E-01  0.93692757626E-02 -0.54779721625E-02  0.23246601774E-01  0.00000000000E+00 0. -1.
     999901    1    3    3    0    0 -0.19646847030E-02 -0.22301682884E-01 -0.12287674938E+00  0.88881939706E+00  0.88000000000E+00 0.  1.
        -11    1    4    4    0    0 -0.43840339208E-02  0.27959771354E-02  0.84492638979E-01  0.84654027690E-01  0.51100000000E-03 0.  1.
         11    1    4    4    0    0 -0.14208834409E-01  0.10136429986E-01  0.43862082564E-01  0.47209973480E-01  0.51100000000E-03 0. -1.
</event>
<event>
 8    1  0.1166736E+005  0.1043930E+01  0.7957747E-01            NaN
         13   -1    0    0    0    0  0.00000000000E+00  0.00000000000E+00  0.74505805969E-08  0.10566000000E+00  0.10566000000E+00 0. -1.
     999900   -1    0    0    0    0 -0.00000000000E+00 -0.00000000000E+00 -0.74505805969E-08  0.93827000000E+00  0.93827000000E+00 0.  1.
     999902    2    1    2    0    0  0.39845511163E-02 -0.23095976808E-01  0.37640533048E-02  0.10201925004E+01  0.10199163048E+01 0.  0.
     999903    2    3    3    0    0 -0.10534918779E+00  0.21009722608E-01 -0.69217111287E-01  0.12933592964E+00  0.19922710386E-01 0.  0.
         14    1    1    2    0    0 -0.39845511163E-02  0.23095976808E-01 -0.37640533048E-02  0.23737499649E-01  0.00000000000E+00 0.  1.
     999901    1    3    3    0    0  0.10933373891E+00 -0.44105699416E-01  0.72981164592E-01  0.89085657071E+00  0.88000000000E+00 0. -1.
        -11    1    4    4    0    0 -0.52248982136E-01  0.92777375332E-02 -0.22498161225E-01  0.57640792218E-01  0.51100000000E-03 0. -1.
         11    1    4    4    0    0 -0.53100205658E-01  0.11731985075E-01 -0.46718950062E-01  0.71695137427E-01  0.51100000000E-03 0.  1.
</event>
<event>
 8    1  0.1166736E+005  0.1043930E+01  0.7957747E-01            NaN
         13   -1    0    0    0    0  0.00000000000E+00  0.00000000000E+00  0.74505805969E-08  0.10566000000E+00  0.10566000000E+00 0.  1.
     999900   -1    0    0    0    0 -0.00000000000E+00 -0.00000000000E+00 -0.74505805969E-08  0.93827000000E+00  0.93827000000E+00 0. -1.
     999902    2    1    2    0    0 -0.29097735620E-02  0.81799742530E-02  0.21994693641E-01  0.10202837464E+01  0.10200096950E+01 0.  0.
     999903    2    3    3    0    0 -0.80748971701E-01 -0.99338101874E-01  0.11011930008E-01  0.13026144412E+00  0.21408556857E-01 0.  0.
         14    1    1    2    0    0  0.29097735620E-02 -0.81799742530E-02 -0.21994693641E-01  0.23646253600E-01  0.00000000000E+00 0. -1.
     999901    1    3    3    0    0  0.77839198139E-01  0.10751807613E+00  0.10982763633E-01  0.89002230228E+00  0.88000000000E+00 0.  1.
        -11    1    4    4    0    0 -0.54945606050E-01 -0.65847389158E-01  0.17373615007E-01  0.87504296480E-01  0.51100000000E-03 0. -1.
         11    1    4    4    0    0 -0.25803365652E-01 -0.33490712716E-01 -0.63616849986E-02  0.42757147639E-01  0.51100000000E-03 0.  1.
</event>
<event>
 8    1  0.1166736E+005  0.1043930E+01  0.7957747E-01            NaN
         13   -1    0    0    0    0  0.00000000000E+00  0.00000000000E+00  0.74505805969E-08  0.10566000000E+00  0.10566000000E+00 0. -1.
     999900   -1    0    0    0    0 -0.00000000000E+00 -0.00000000000E+00 -0.74505805969E-08  0.93827000000E+00  0.93827000000E+00 0. -1.
     999902    2    1    2    0    0  0.14272552282E-01 -0.18154094063E-01  0.69567792769E-02  0.10198120884E+01  0.10195268619E+01 0.  0.
     999903    2    3    3    0    0 -0.11823103470E+00 -0.19066520678E-01  0.43940655240E-01  0.12912368043E+00  0.20000847202E-01 0.  0.
         14    1    1    2    0    0 -0.14272552282E-01  0.18154094063E-01 -0.69567792769E-02  0.24117911555E-01  0.00000000000E+00 0.  1.
     999901    1    3    3    0    0  0.13250358698E+00  0.91242661499E-03 -0.36983875963E-01  0.89068840801E+00  0.88000000000E+00 0. -1.
        -11    1    4    4    0    0 -0.63186668635E-01 -0.26178240109E-02  0.15987070754E-01  0.65232320578E-01  0.51100000000E-03 0. -1.
         11    1    4    4    0    0 -0.55044366065E-01 -0.16448696667E-01  0.27953584486E-01  0.63891359855E-01  0.51100000000E-03 0.  1.
</event>
<event>
 8    1  0.1166736E+005  0.1043930E+01  0.7957747E-01            NaN
         13   -1    0    0    0    0  0.00000000000E+00  0.00000000000E+00  0.74505805969E-08  0.10566000000E+00  0.10566000000E+00 0. -1.
     999900   -1    0    0    0    0 -0.00000000000E+00 -0.00000000000E+00 -0.74505805969E-08  0.93827000000E+00  0.93827000000E+00 0. -1.
     999902    2    1    2    0    0  0.10697147305E-01 -0.19281422572E-01 -0.11063506814E-02  0.10218522685E+01  0.10216137393E+01 0.  0.
     999903    2    3    3    0    0 -0.12000735588E+00 -0.51195933362E-01 -0.64238186866E-02  0.13161045942E+00  0.16039280670E-01 0.  0.
         14    1    1    2    0    0 -0.10697147305E-01  0.19281422572E-01  0.11063506814E-02  0.22077731512E-01  0.00000000000E+00 0.  1.
     999901    1    3    3    0    0  0.13070450318E+00  0.31914510790E-01  0.53174680052E-02  0.89024180907E+00  0.88000000000E+00 0. -1.
        -11    1    4    4    0    0 -0.71800177126E-01 -0.39041650079E-01 -0.45664580923E-02  0.81857373136E-01  0.51100000000E-03 0.  1.
         11    1    4    4    0    0 -0.48207178750E-01 -0.12154283283E-01 -0.18573605943E-02  0.49753086282E-01  0.51100000000E-03 0. -1.
</event>
<event>
 7    1  0.1166736E+005  0.1043930E+01  0.7957747E-01            NaN
         13   -1    0    0    0    0  0.00000000000E+00  0.00000000000E+00  0.74505805969E-08  0.10566000000E+00  0.10566000000E+00 0. -1.
     999900   -1    0    0    0    0 -0.00000000000E+00 -0.00000000000E+00 -0.74505805969E-08  0.93827000000E+00  0.93827000000E+00 0. -1.
     999902    2    1    2    0    0  0.59629811630E-02 -0.21888920219E-01  0.62870258178E-02  0.10203883631E+01  0.10201167595E+01 0.  0.
         14    1    1    2    0    0 -0.59629811630E-02  0.21888920219E-01 -0.62870258178E-02  0.23541636866E-01  0.00000000000E+00 0. -1.
     999901    1    3    3    0    0  0.14840091314E-01 -0.13667120505E+00 -0.25533272659E-01  0.89103939004E+00  0.88000000000E+00 0.  1.
        -11    1    3    3    0    0  0.20585222279E-01  0.49092281966E-01  0.10492575312E-01  0.54260103046E-01  0.51100000000E-03 0.  1.
         11    1    3    3    0    0 -0.29462332429E-01  0.65690002860E-01  0.21327723164E-01  0.75088870043E-01  0.51100000000E-03 0. -1.
</event>
<event>
 8    1  0.1166736E+005  0.1043930E+01  0.7957747E-01            NaN
         13   -1    0    0    0    0  0.00000000000E+00  0.00000000000E+00  0.74505805969E-08  0.10566000000E+00  0.10566000000E+00 0. -1.
     999900   -1    0    0    0    0 -0.00000000000E+00 -0.00000000000E+00 -0.74505805969E-08  0.93827000000E+00  0.93827000000E+00 0. -1.
     999902    2    1    2    0    0 -0.69586481079E-02 -0.18105239184E-01  0.13734733071E-01  0.10201631037E+01  0.10198862156E+01 0.  0.
     999903    2    3    3    0    0 -0.15402129823E-01 -0.11081408297E+00  0.70106248782E-01  0.13345911140E+00  0.19479776924E-01 0.  0.
         14    1    1    2    0    0  0.69586481079E-02  0.18105239184E-01 -0.13734733071E-01  0.23766896346E-01  0.00000000000E+00 0.  1.
     999901    1    3    3    0    0  0.84434817154E-02  0.92708843787E-01 -0.56371515711E-01  0.88670399226E+00  0.88000000000E+00 0. -1.
        -11    1    4    4    0    0 -0.59189479471E-02 -0.68383542666E-01  0.32387548242E-01  0.75898334991E-01  0.51100000000E-03 0. -1.
         11    1    4    4    0    0 -0.94831818762E-02 -0.42430540305E-01  0.37718700540E-01  0.57560776406E-01  0.51100000000E-03 0.  1.
</event>
<event>
 8    1  0.1166736E+005  0.1043930E+01  0.7957747E-01            NaN
         13   -1    0    0    0    0  0.00000000000E+00  0.00000000000E+00  0.74505805969E-08  0.10566000000E+00  0.10566000000E+00 0.  1.
     999900   -1    0    0    0    0 -0.00000000000E+00 -0.00000000000E+00 -0.74505805969E-08  0.93827000000E+00  0.93827000000E+00 0. -1.
     999902    2    1    2    0    0 -0.20405417626E-01  0.69494961041E-02  0.11241165283E-01  0.10196186783E+01  0.10193288031E+01 0.  0.
     999903    2    3    3    0    0  0.18949450000E-01 -0.27059346431E-01  0.12492290045E+00  0.13078295454E+00  0.20178212390E-01 0.  0.
         14    1    1    2    0    0  0.20405417626E-01 -0.69494961041E-02 -0.11241165283E-01  0.24311321674E-01  0.00000000000E+00 0. -1.
     999901    1    3    3    0    0 -0.39354867626E-01  0.34008842535E-01 -0.11368173517E+00  0.88883572379E+00  0.88000000000E+00 0. -1.
        -11    1    4    4    0    0  0.15476437647E-02 -0.13727326782E-01  0.74900632383E-01  0.76165612675E-01  0.51100000000E-03 0. -1.
         11    1    4    4    0    0  0.17401806235E-01 -0.13332019650E-01  0.50022268068E-01  0.54617341860E-01  0.51100000000E-03 0.  1.
</event>
<event>
 8    1  0.1166736E+005  0.1043930E+01  0.7957747E-01            NaN
         13   -1    0    0    0    0  0.00000000000E+00  0.00000000000E+00  0.74505805969E-08  0.10566000000E+00  0.10566000000E+00 0.  1.
     999900   -1    0    0    0    0 -0.00000000000E+00 -0.00000000000E+00 -0.74505805969E-08  0.93827000000E+00  0.93827000000E+00 0. -1.
     999902    2    1    2    0    0 -0.44915886476E-02 -0.14135659077E-01 -0.18509921029E-01  0.10202106323E+01  0.10199348636E+01 0.  0.
     999903    2    3    3    0    0  0.92243265326E-01 -0.85541636154E-01 -0.34377111602E-01  0.13189300148E+00  0.19692296072E-01 0.  0.
         14    1    1    2    0    0  0.44915886476E-02  0.14135659077E-01  0.18509921029E-01  0.23719367669E-01  0.00000000000E+00 0.  1.
     999901    1    3    3    0    0 -0.96734853974E-01  0.71405977077E-01  0.15867190573E-01  0.88831763085E+00  0.88000000000E+00 0.  1.
        -11    1    4    4    0    0  0.52433233689E-01 -0.37464764210E-01 -0.23106488228E-01  0.68461839528E-01  0.51100000000E-03 0. -1.
         11    1    4    4    0    0  0.39810031637E-01 -0.48076871944E-01 -0.11270623374E-01  0.63431161956E-01  0.51100000000E-03 0.  1.
</event>
<event>
 8    1  0.1166736E+005  0.1043930E+01  0.7957747E-01            NaN
         13   -1    0    0    0    0  0.00000000000E+00  0.00000000000E+00  0.74505805969E-08  0.10566000000E+00  0.10566000000E+00 0. -1.
     999900   -1    0    0    0    0 -0.00000000000E+00 -0.00000000000E+00 -0.74505805969E-08  0.93827000000E+00  0.93827000000E+00 0.  1.
     999902    2    1    2    0    0 -0.19462456187E-01  0.86482947065E-02  0.89338962560E-02  0.10208346605E+01  0.10205733729E+01 0.  0.
     999903    2    3    3    0    0 -0.67971064685E-01 -0.86817219435E-01 -0.67892216393E-01  0.13102063443E+00  0.19993958465E-01 0.  0.
         14    1    1    2    0    0  0.19462456187E-01 -0.86482947065E-02 -0.89338962560E-02  0.23095339453E-01  0.00000000000E+00 0. -1.
     999901    1    3    3    0    0  0.48508608498E-01  0.95465514141E-01  0.76826112649E-01  0.88981402612E+00  0.88000000000E+00 0.  1.
        -11    1    4    4    0    0 -0.49794629639E-01 -0.53378729894E-01 -0.52712627622E-01  0.90042635334E-01  0.51100000000E-03 0.  1.
         11    1    4    4    0    0 -0.18176435045E-01 -0.33438489541E-01 -0.15179588770E-01  0.40977999096E-01  0.51100000000E-03 0. -1.
</event>
<event>
 8    1  0.1166736E+005  0.1043930E+01  0.7957747E-01            NaN
         13   -1    0    0    0    0  0.00000000000E+00  0.00000000000E+00  0.74505805969E-08  0.10566000000E+00  0.10566000000E+00 0. -1.
     999900   -1    0    0    0    0 -0.00000000000E+00 -0.00000000000E+00 -0.74505805969E-08  0.93827000000E+00  0.93827000000E+00 0. -1.
     999902    2    1    2    0    0 -0.20829618402E-01  0.15847991826E-02 -0.11424285792E-01  0.10201203613E+01  0.10198424646E+01 0.  0.
     999903    2    3    3    0    0  0.58498944777E-01  0.11342066730E+00  0.43142985683E-02  0.12936338802E+00  0.20733998109E-01 0.  0.
         14    1    1    2    0    0  0.20829618402E-01 -0.15847991826E-02  0.11424285792E-01  0.23809638743E-01  0.00000000000E+00 0. -1.
     999901    1    3    3    0    0 -0.79328563179E-01 -0.11183586811E+00 -0.15738584360E-01  0.89075697324E+00  0.88000000000E+00 0. -1.
        -11    1    4    4    0    0  0.10126058702E-01  0.32465091352E-01  0.81612499390E-02  0.34976940159E-01  0.51100000000E-03 0.  1.
         11    1    4    4    0    0  0.48372886075E-01  0.80955575945E-01 -0.38469513707E-02  0.94386447860E-01  0.51100000000E-03 0. -1.
</event>
<event>
 8    1  0.1166736E+005  0.1043930E+01  0.7957747E-01            NaN
         13   -1    0    0    0    0  0.00000000000E+00  0.00000000000E+00  0.74505805969E-08  0.10566000000E+00  0.10566000000E+00 0.  1.
     999900   -1    0    0    0    0 -0.00000000000E+00 -0.00000000000E+00 -0.74505805969E-08  0.93827000000E+00  0.93827000000E+00 0.  1.
     999902    2    1    2    0    0 -0.21709384778E-01  0.36981327802E-02 -0.95301535908E-02  0.10199342212E+01  0.10196519103E+01 0.  0.
     999903    2    3    3    0    0  0.11457106288E+00  0.43424200883E-02 -0.54562769204E-01  0.12830609691E+00  0.18438374648E-01 0.  0.
         14    1    1    2    0    0  0.21709384778E-01 -0.36981327802E-02  0.95301535908E-02  0.23995778815E-01  0.00000000000E+00 0. -1.
     999901    1    3    3    0    0 -0.13628044766E+00 -0.64428730809E-03  0.45032615614E-01  0.89162812427E+00  0.88000000000E+00 0. -1.
        -11    1    4    4    0    0  0.64648827553E-01  0.95069928131E-02 -0.37222099829E-01  0.75203721005E-01  0.51100000000E-03 0.  1.
         11    1    4    4    0    0  0.49922235331E-01 -0.51645727248E-02 -0.17340669376E-01  0.53102375909E-01  0.51100000000E-03 0. -1.
</event>
<event>
 8    1  0.1166736E+005  0.1043930E+01  0.7957747E-01            NaN
         13   -1    0    0    0    0  0.00000000000E+00  0.00000000000E+00  0.74505805969E-08  0.10566000000E+00  0.10566000000E+00 0. -1.
     999900   -1    0    0    0    0 -0.00000000000E+00 -0.00000000000E+00 -0.74505805969E-08  0.93827000000E+00  0.93827000000E+00 0.  1.
     999902    2    1    2    0    0 -0.39613881756E-02 -0.12397264146E-01  0.21129359431E-01  0.10191139853E+01  0.10188117984E+01 0.  0.
     999903    2    3    3    0    0  0.86849854023E-01  0.50772464151E-01  0.80103846745E-01  0.13022980477E+00  0.20553236409E-01 0.  0.
         14    1    1    2    0    0  0.39613881756E-02  0.12397264146E-01 -0.21129359431E-01  0.24816014679E-01  0.00000000000E+00 0.  1.
     999901    1    3    3    0    0 -0.90811242198E-01 -0.63169728297E-01 -0.58974487314E-01  0.88888418055E+00  0.88000000000E+00 0.  1.
        -11    1    4    4    0    0  0.25162155189E-01  0.12599033844E-01  0.34570537828E-01  0.44578614989E-01  0.51100000000E-03 0. -1.
         11    1    4    4    0    0  0.61687698833E-01  0.38173430307E-01  0.45533308917E-01  0.85651189780E-01  0.51100000000E-03 0.  1.
</event>
<event>
 8    1  0.1166736E+005  0.1043930E+01  0.7957747E-01            NaN
         13   -1    0    0    0    0  0.00000000000E+00  0.00000000000E+00  0.74505805969E-08  0.10566000000E+00  0.10566000000E+00 0.  1.
     999900   -1    0    0    0    0 -0.00000000000E+00 -0.00000000000E+00 -0.74505805969E-08  0.93827000000E+00  0.93827000000E+00 0. -1.
     999902    2    1    2    0    0 -0.69766345895E-02 -0.18292859995E-01  0.13037837328E-01  0.10204079389E+01  0.10201367920E+01 0.  0.
     999903    2    3    3    0    0 -0.12850665273E+00 -0.26138309583E-01 -0.91320086982E-02  0.13174456141E+00  0.87215166776E-02 0.  0.
         14    1    1    2    0    0  0.69766345895E-02  0.18292859995E-01 -0.13037837328E-01  0.23522061117E-01  0.00000000000E+00 0.  1.
     999901    1    3    3    0    0  0.12153001815E+00  0.78454495879E-02  0.22169846026E-01  0.88866337747E+00  0.88000000000E+00 0.  1.
        -11    1    4    4    0    0 -0.40616157156E-01 -0.70619756980E-02  0.97409956870E-03  0.41240195367E-01  0.51100000000E-03 0.  1.
         11    1    4    4    0    0 -0.87890495578E-01 -0.19076333885E-01 -0.10106108267E-01  0.90504366043E-01  0.51100000000E-03 0. -1.
</event>
<event>
 8    1  0.1166736E+005  0.1043930E+01  0.7957747E-01            NaN
         13   -1    0    0    0    0  0.00000000000E+00  0.00000000000E+00  0.74505805969E-08  0.10566000000E+00  0.10566000000E+00 0.  1.
     999900   -1    0    0    0    0 -0.00000000000E+00 -0.00000000000E+00 -0.74505805969E-08  0.93827000000E+00  0.93827000000E+00 0. -1.
     999902    2    1    2    0    0 -0.13234575634E-01 -0.14400693051E-01 -0.11943411925E-01  0.10210132149E+01  0.10207559972E+01 0.  0.
     999903    2    3    3    0    0  0.10921689331E+00  0.13212822056E-01 -0.67053143240E-01  0.13039884773E+00  0.20120313578E-01 0.  0.
         14    1    1    2    0    0  0.13234575634E-01  0.14400693051E-01  0.11943411925E-01  0.22916785136E-01  0.00000000000E+00 0.  1.
     999901    1    3    3    0    0 -0.12245146895E+00 -0.27613515107E-01  0.55109731314E-01  0.89061436714E+00  0.88000000000E+00 0.  1.
        -11    1    4    4    0    0  0.83081701431E-01  0.18611299369E-01 -0.50585302300E-01  0.99035768825E-01  0.51100000000E-03 0. -1.
         11    1    4    4    0    0  0.26135191883E-01 -0.53984773130E-02 -0.16467840939E-01  0.31363078903E-01  0.51100000000E-03 0.  1.
</event>
<event>
 8    1  0.1166736E+005  0.1043930E+01  0.7957747E-01            NaN
         13   -1    0    0    0    0  0.00000000000E+00  0.00000000000E+00  0.74505805969E-08  0.10566000000E+00  0.10566000000E+00 0. -1.
     999900   -1    0    0    0    0 -0.00000000000E+00 -0.00000000000E+00 -0.74505805969E-08  0.93827000000E+00  0.93827000000E+00 0.  1.
     999902    2    1    2    0    0 -0.22692806817E-01 -0.14699394040E-01 -0.22436709331E-02  0.10167993950E+01  0.10164373763E+01 0.  0.
     999903    2    3    3    0    0  0.91030953597E-01 -0.48355943062E-02  0.83570313462E-01  0.12528695646E+00  0.20070044371E-01 0.  0.
         14    1    1    2    0    0  0.22692806817E-01  0.14699394040E-01  0.22436709331E-02  0.27130604962E-01  0.00000000000E+00 0.  1.
     999901    1    3    3    0    0 -0.11372376041E+00 -0.98637997337E-02 -0.85813984395E-01  0.89151243858E+00  0.88000000000E+00 0.  1.
        -11    1    4    4    0    0  0.46390748529E-01 -0.56055432781E-02  0.29924857482E-01  0.55491277520E-01  0.51100000000E-03 0. -1.
         11    1    4    4    0    0  0.44640205068E-01  0.76994897198E-03  0.53645455980E-01  0.69795678936E-01  0.51100000000E-03 0.  1.
</event>
<event>
 8    1  0.1166736E+005  0.1043930E+01  0.7957747E-01            NaN
         13   -1    0    0    0    0  0.00000000000E+00  0.00000000000E+00  0.74505805969E-08  0.10566000000E+00  0.10566000000E+00 0.  1.
     999900   -1    0    0    0    0 -0.00000000000E+00 -0.00000000000E+00 -0.74505805969E-08  0.93827000000E+00  0.93827000000E+00 0.  1.
     999902    2    1    2    0    0  0.14692094756E-01 -0.55767992212E-02 -0.17578474258E-01  0.10203511727E+01  0.10200787002E+01 0.  0.
     999903    2    3    3    0    0  0.20960553564E-01 -0.12844320738E+00 -0.36693798368E-02  0.13168424371E+00  0.19755337644E-01 0.  0.
         14    1    1    2    0    0 -0.14692094756E-01  0.55767992212E-02  0.17578474258E-01  0.23578827263E-01  0.00000000000E+00 0.  1.
     999901    1    3    3    0    0 -0.62684588078E-02  0.12286640816E+00 -0.13909094421E-01  0.88866692902E+00  0.88000000000E+00 0.  1.
        -11    1    4    4    0    0  0.11661376164E-01 -0.40612088005E-01 -0.89849759387E-02  0.43200929386E-01  0.51100000000E-03 0.  1.
         11    1    4    4    0    0  0.92991774001E-02 -0.87831119379E-01  0.53155961019E-02  0.88483314329E-01  0.51100000000E-03 0. -1.
</event>
<event>
 8    1  0.1166736E+005  0.1043930E+01  0.7957747E-01            NaN
         13   -1    0    0    0    0  0.00000000000E+00  0.00000000000E+00  0.74505805969E-08  0.10566000000E+00  0.10566000000E+00 0.  1.
     999900   -1    0    0    0    0 -0.00000000000E+00 -0.00000000000E+00 -0.74505805969E-08  0.93827000000E+00  0.93827000000E+00 0.  1.
     999902    2    1    2    0    0 -0.14823236474E-01  0.17748732086E-01 -0.12207002503E-02  0.10207732312E+01  0.10205105358E+01 0.  0.
     999903    2    3    3    0    0  0.26987568148E-01 -0.71073708568E-01  0.10250421994E+00  0.12925967082E+00  0.20521854470E-01 0.  0.
         14    1    1    2    0    0  0.14823236474E-01 -0.17748732086E-01  0.12207002503E-02  0.23156768758E-01  0.00000000000E+00 0.  1.
     999901    1    3    3    0    0 -0.41810804623E-01  0.88822440654E-01 -0.10372492019E+00  0.89151356042E+00  0.88000000000E+00 0.  1.
        -11    1    4    4    0    0  0.98763244992E-02 -0.18673803511E-01  0.44370006469E-01  0.49144799503E-01  0.51100000000E-03 0.  1.
         11    1    4    4    0    0  0.17111243649E-01 -0.52399905057E-01  0.58134213471E-01  0.80114871317E-01  0.51100000000E-03 0. -1.
</event>
<event>
 8    1  0.1166736E+005  0.1043930E+01  0.7957747E-01            NaN
         13   -1    0    0    0    0  0.00000000000E+00  0.00000000000E+00  0.74505805969E-08  0.10566000000E+00  0.10566000000E+00 0. -1.
     999900   -1    0    0    0    0 -0.00000000000E+00 -0.00000000000E+00 -0.74505805969E-08  0.93827000000E+00  0.93827000000E+00 0. -1.
     999902    2    1    2    0    0  0.14692356761E-01 -0.21156071582E-02  0.17560394240E-01  0.10209363359E+01  0.10206773699E+01 0.  0.
     999903    2    3    3    0    0 -0.89577239129E-01  0.25937267564E-01  0.90437740086E-01  0.13134641922E+00  0.19392611745E-01 0.  0.
         14    1    1    2    0    0 -0.14692356761E-01  0.21156071582E-02 -0.17560394240E-01  0.22993664056E-01  0.00000000000E+00 0.  1.
     999901    1    3    3    0    0  0.10426959589E+00 -0.28052874722E-01 -0.72877345845E-01  0.88958991673E+00  0.88000000000E+00 0. -1.
        -11    1    4    4    0    0 -0.55737984032E-01  0.63023448073E-02  0.51657688392E-01  0.76257591786E-01  0.51100000000E-03 0.  1.
         11    1    4    4    0    0 -0.33839255098E-01  0.19634922757E-01  0.38780051694E-01  0.55088827430E-01  0.51100000000E-03 0. -1.
</event>
<event>
 8    1  0.1166736E+005  0.1043930E+01  0.7957747E-01            NaN
         13   -1    0    0    0    0  0.00000000000E+00  0.00000000000E+00  0.74505805969E-08  0.10566000000E+00  0.10566000000E+00 0.  1.
     999900   -1    0    0    0    0 -0.00000000000E+00 -0.00000000000E+00 -0.74505805969E-08  0.93827000000E+00  0.93827000000E+00 0.  1.
     999902    2    1    2    0    0 -0.19000000817E-01  0.47346233713E-02 -0.11996203203E-01  0.10209664293E+01  0.10207081484E+01 0.  0.
     999903    2    3    3    0    0  0.43610916224E-01 -0.44413680784E-01 -0.11402279228E+00  0.13150304744E+00  0.20429568536E-01 0.  0.
         14    1    1    2    0    0  0.19000000817E-01 -0.47346233713E-02  0.11996203203E-01  0.22963570733E-01  0.00000000000E+00 0.  1.
     999901    1    3    3    0    0 -0.62610917041E-01  0.49148304155E-01  0.10202658908E+00  0.88946338183E+00  0.88000000000E+00 0. -1.
        -11    1    4    4    0    0  0.22835815660E-01 -0.36930482527E-01 -0.75210567342E-01  0.86845987688E-01  0.51100000000E-03 0.  1.
         11    1    4    4    0    0  0.20775100564E-01 -0.74831982567E-02 -0.38812224943E-01  0.44657059751E-01  0.51100000000E-03 0. -1.
</event>
<event>
 8    1  0.1166736E+005  0.1043930E+01  0.7957747E-01            NaN
         13   -1    0    0    0    0  0.00000000000E+00  0.00000000000E+00  0.74505805969E-08  0.10566000000E+00  0.10566000000E+00 0.  1.
     999900   -1    0    0    0    0 -0.00000000000E+00 -0.00000000000E+00 -0.74505805969E-08  0.93827000000E+00  0.93827000000E+00 0.  1.
     999902    2    1    2    0    0 -0.10585311854E-01  0.14973358377E-01 -0.55716377416E-02  0.10247650989E+01  0.10245858746E+01 0.  0.
     999903    2    3    3    0    0  0.59909251957E-01 -0.20739230857E-01  0.11505053202E+00  0.13302826527E+00  0.20991909825E-01 0.  0.
         14    1    1    2    0    0  0.10585311854E-01 -0.14973358377E-01  0.55716377416E-02  0.19164901128E-01  0.00000000000E+00 0. -1.
     999901    1    3    3    0    0 -0.70494563811E-01  0.35712589233E-01 -0.12062216976E+00  0.89173683360E+00  0.88000000000E+00 0.  1.
        -11    1    4    4    0    0  0.30724439484E-01 -0.39771278968E-03  0.45496679277E-01  0.54903172069E-01  0.51100000000E-03 0.  1.
         11    1    4    4    0    0  0.29184812473E-01 -0.20341518067E-01  0.69553852741E-01  0.78125093206E-01  0.51100000000E-03 0. -1.
</event>
<event>
 8    1  0.1166736E+005  0.1043930E+01  0.7957747E-01            NaN
         13   -1    0    0    0    0  0.00000000000E+00  0.00000000000E+00  0.74505805969E-08  0.10566000000E+00  0.10566000000E+00 0.  1.
     999900   -1    0    0    0    0 -0.00000000000E+00 -0.00000000000E+00 -0.74505805969E-08  0.93827000000E+00  0.93827000000E+00 0.  1.
     999902    2    1    2    0    0  0.15739329741E-01 -0.13808445170E-02 -0.19802871431E-01  0.10185964857E+01  0.10182814020E+01 0.  0.
     999903    2    3    3    0    0  0.36458806937E-01 -0.97007641989E-01 -0.77479274134E-01  0.13129701616E+00  0.22274230071E-01 0.  0.
         14    1    1    2    0    0 -0.15739329741E-01  0.13808445170E-02  0.19802871431E-01  0.25333514347E-01  0.00000000000E+00 0.  1.
     999901    1    3    3    0    0 -0.20719477196E-01  0.95626797472E-01  0.57676402704E-01  0.88729946949E+00  0.88000000000E+00 0. -1.
        -11    1    4    4    0    0  0.33499390218E-01 -0.65346908109E-01 -0.46621418613E-01  0.86984167174E-01  0.51100000000E-03 0.  1.
         11    1    4    4    0    0  0.29594167187E-02 -0.31660733879E-01 -0.30857855521E-01  0.44312848988E-01  0.51100000000E-03 0. -1.
</event>
<event>
 8    1  0.1166736E+005  0.1043930E+01  0.7957747E-01            NaN
         13   -1    0    0    0    0  0.00000000000E+00  0.00000000000E+00  0.74505805969E-08  0.10566000000E+00  0.10566000000E+00 0. -1.
     999900   -1    0    0    0    0 -0.00000000000E+00 -0.00000000000E+00 -0.74505805969E-08  0.93827000000E+00  0.93827000000E+00 0. -1.
     999902    2    1    2    0    0  0.12632398242E-01 -0.36701216521E-02 -0.18515398875E-01  0.10212172883E+01  0.10209646823E+01 0.  0.
     999903    2    3    3    0    0 -0.83885786865E-02  0.74624808105E-02  0.12682241500E+00  0.12897914941E+00  0.20631024294E-01 0.  0.
         14    1    1    2    0    0 -0.12632398242E-01  0.36701216521E-02  0.18515398875E-01  0.22712711723E-01  0.00000000000E+00 0. -1.
     999901    1    3    3    0    0  0.21020976928E-01 -0.11132602463E-01 -0.14533781388E+00  0.89223813887E+00  0.88000000000E+00 0. -1.
        -11    1    4    4    0    0 -0.86590792997E-02 -0.54053727521E-02  0.44766054963E-01  0.45917954080E-01  0.51100000000E-03 0. -1.
         11    1    4    4    0    0  0.27050061323E-03  0.12867853563E-01  0.82056360038E-01  0.83061195329E-01  0.51100000000E-03 0.  1.
</event>
<event>
 8    1  0.1166736E+005  0.1043930E+01  0.7957747E-01            NaN
         13   -1    0    0    0    0  0.00000000000E+00  0.00000000000E+00  0.74505805969E-08  0.10566000000E+00  0.10566000000E+00 0.  1.
     999900   -1    0    0    0    0 -0.00000000000E+00 -0.00000000000E+00 -0.74505805969E-08  0.93827000000E+00  0.93827000000E+00 0.  1.
     999902    2    1    2    0    0 -0.16488446343E-01 -0.11811875659E-01 -0.13594380170E-01  0.10195128658E+01  0.10192204311E+01 0.  0.
     999903    2    3    3    0    0 -0.40931445147E-01  0.11658452092E+00  0.29497082730E-01  0.12881652642E+00  0.21360849004E-01 0.  0.
         14    1    1    2    0    0  0.16488446343E-01  0.11811875659E-01  0.13594380170E-01  0.24417134180E-01  0.00000000000E+00 0.  1.
     999901    1    3    3    0    0  0.24442998804E-01 -0.12839639658E+00 -0.43091462900E-01  0.89069633940E+00  0.88000000000E+00 0. -1.
        -11    1    4    4    0    0 -0.31872404941E-02  0.19979705213E-01  0.12298411038E-01  0.23682465189E-01  0.51100000000E-03 0. -1.
         11    1    4    4    0    0 -0.37744204653E-01  0.96604815704E-01  0.17198671692E-01  0.10513406123E+00  0.51100000000E-03 0.  1.
</event>
<event>
 8    1  0.1166736E+005  0.1043930E+01  0.7957747E-01            NaN
         13   -1    0    0    0    0  0.00000000000E+00  0.00000000000E+00  0.74505805969E-08  0.10566000000E+00  0.10566000000E+00 0.  1.
     999900   -1    0    0    0    0 -0.00000000000E+00 -0.00000000000E+00 -0.74505805969E-08  0.93827000000E+00  0.93827000000E+00 0. -1.
     999902    2    1    2    0    0 -0.38988111458E-02  0.22706278332E-01 -0.44392815657E-02  0.10204676253E+01  0.10201978687E+01 0.  0.
     999903    2    3    3    0    0 -0.12564480203E+00 -0.26395531725E-01  0.96139050619E-02  0.13061900557E+00  0.22035359584E-01 0.  0.
         14    1    1    2    0    0  0.38988111458E-02 -0.22706278332E-01  0.44392815657E-02  0.23462374663E-01  0.00000000000E+00 0.  1.
     999901    1    3    3    0    0  0.12174599089E+00  0.49101810057E-01 -0.14053186628E-01  0.88984861977E+00  0.88000000000E+00 0. -1.
        -11    1    4    4    0    0 -0.49747604688E-01 -0.10870567861E-02 -0.18394422870E-02  0.49796089541E-01  0.51100000000E-03 0. -1.
         11    1    4    4    0    0 -0.75897197346E-01 -0.25308474939E-01  0.11453347349E-01  0.80822916028E-01  0.51100000000E-03 0.  1.
</event>
<event>
 8    1  0.1166736E+005  0.1043930E+01  0.7957747E-01            NaN
         13   -1    0    0    0    0  0.00000000000E+00  0.00000000000E+00  0.74505805969E-08  0.10566000000E+00  0.10566000000E+00 0. -1.
     999900   -1    0    0    0    0 -0.00000000000E+00 -0.00000000000E+00 -0.74505805969E-08  0.93827000000E+00  0.93827000000E+00 0.  1.
     999902    2    1    2    0    0 -0.16263914472E-01 -0.18042396037E-01  0.18721838034E-02  0.10195671586E+01  0.10192760386E+01 0.  0.
     999903    2    3    3    0    0  0.95824275416E-01  0.77246143275E-01  0.24538414995E-01  0.12706649974E+00  0.19862103010E-01 0.  0.
         14    1    1    2    0    0  0.16263914472E-01  0.18042396037E-01 -0.18721838034E-02  0.24362841396E-01  0.00000000000E+00 0.  1.
     999901    1    3    3    0    0 -0.11208818989E+00 -0.95288539312E-01 -0.22666231191E-01  0.89250065886E+00  0.88000000000E+00 0.  1.
        -11    1    4    4    0    0  0.58085135013E-01  0.42267983152E-01  0.23545653701E-01  0.75598440714E-01  0.51100000000E-03 0. -1.
         11    1    4    4    0    0  0.37739140403E-01  0.34978160123E-01  0.99276129406E-03  0.51468059026E-01  0.51100000000E-03 0.  1.
</event>
<event>
 7    1  0.1166736E+005  0.1043930E+01  0.7957747E-01            NaN
         13   -1    0    0    0    0  0.00000000000E+00  0.00000000000E+00  0.74505805969E-08  0.10566000000E+00  0.10566000000E+00 0.  1.
     999900   -1    0    0    0    0 -0.00000000000E+00 -0.00000000000E+00 -0.74505805969E-08  0.93827000000E+00  0.93827000000E+00 0. -1.
     999903    2    1    2    0    0  0.12515188111E-01  0.17921700338E-01 -0.65907018709E-01  0.72162032400E-01  0.19641958366E-01 0.  0.
         14    1    1    2    0    0 -0.50715602439E-01  0.65381258354E-01 -0.11889700774E-01  0.83595132988E-01  0.00000000000E+00 0.  1.
     999901    1    1    2    0    0  0.38200414328E-01 -0.83302958692E-01  0.77796719483E-01  0.88817283461E+00  0.88000000000E+00 0.  1.
        -11    1    3    3    0    0  0.82819226942E-02  0.15892575142E-01 -0.23830883493E-01  0.29821742357E-01  0.51100000000E-03 0.  1.
         11    1    3    3    0    0  0.42332654171E-02  0.20291251960E-02 -0.42076135217E-01  0.42340290043E-01  0.51100000000E-03 0. -1.
</event>
<event>
 8    1  0.1166736E+005  0.1043930E+01  0.7957747E-01            NaN
         13   -1    0    0    0    0  0.00000000000E+00  0.00000000000E+00  0.74505805969E-08  0.10566000000E+00  0.10566000000E+00 0. -1.
     999900   -1    0    0    0    0 -0.00000000000E+00 -0.00000000000E+00 -0.74505805969E-08  0.93827000000E+00  0.93827000000E+00 0.  1.
     999902    2    1    2    0    0 -0.43657329253E-02 -0.50491588666E-02 -0.21503370225E-01  0.10214144818E+01  0.10211662916E+01 0.  0.
     999903    2    3    3    0    0  0.83552781984E-01  0.44774767585E-01 -0.90538270110E-01  0.13294506402E+00  0.22166743176E-01 0.  0.
         14    1    1    2    0    0  0.43657329253E-02  0.50491588666E-02  0.21503370225E-01  0.22515518210E-01  0.00000000000E+00 0. -1.
     999901    1    3    3    0    0 -0.87918514909E-01 -0.49823926452E-01  0.69034899885E-01  0.88846941777E+00  0.88000000000E+00 0. -1.
        -11    1    4    4    0    0  0.50564264650E-01  0.21630007701E-01 -0.38542229182E-01  0.67159263278E-01  0.51100000000E-03 0.  1.
         11    1    4    4    0    0  0.32988517334E-01  0.23144759884E-01 -0.51996040928E-01  0.65785800742E-01  0.51100000000E-03 0. -1.
</event>
<event>
 8    1  0.1166736E+005  0.1043930E+01  0.7957747E-01            NaN
         13   -1    0    0    0    0  0.00000000000E+00  0.00000000000E+00  0.74505805969E-08  0.10566000000E+00  0.10566000000E+00 0.  1.
     999900   -1    0    0    0    0 -0.00000000000E+00 -0.00000000000E+00 -0.74505805969E-08  0.93827000000E+00  0.93827000000E+00 0.  1.
     999902    2    1    2    0    0  0.75778704628E-02 -0.61330390277E-03  0.23540024814E-01  0.10191927198E+01  0.10188924708E+01 0.  0.
     999903    2    3    3    0    0  0.29719637437E-01 -0.98507164284E-01  0.79974066310E-01  0.13169158360E+00  0.18971126626E-01 0.  0.
         14    1    1    2    0    0 -0.75778704628E-02  0.61330390277E-03 -0.23540024814E-01  0.24737280179E-01  0.00000000000E+00 0. -1.
     999901    1    3    3    0    0 -0.22141766974E-01  0.97893860381E-01 -0.56434041496E-01  0.88750113622E+00  0.88000000000E+00 0.  1.
        -11    1    4    4    0    0  0.25917335380E-01 -0.92306026488E-01  0.67541735784E-01  0.11727854873E+00  0.51100000000E-03 0.  1.
         11    1    4    4    0    0  0.38023020567E-02 -0.62011377956E-02  0.12432330526E-01  0.14413034871E-01  0.51100000000E-03 0. -1.
</event>
<event>
 8    1  0.1166736E+005  0.1043930E+01  0.7957747E-01            NaN
         13   -1    0    0    0    0  0.00000000000E+00  0.00000000000E+00  0.74505805969E-08  0.10566000000E+00  0.10566000000E+00 0. -1.
     999900   -1    0    0    0    0 -0.00000000000E+00 -0.00000000000E+00 -0.74505805969E-08  0.93827000000E+00  0.93827000000E+00 0. -1.
     999902    2    1    2    0    0  0.67116268564E-02 -0.16322887328E-01  0.14491660154E-01  0.10210938269E+01  0.10208384361E+01 0.  0.
     999903    2    3    3    0    0  0.87600868547E-01 -0.98115534009E-01  0.93920075476E-02  0.13359221403E+00  0.21403262818E-01 0.  0.
         14    1    1    2    0    0 -0.67116268564E-02  0.16322887328E-01 -0.14491660154E-01  0.22836173055E-01  0.00000000000E+00 0.  1.
     999901    1    3    3    0    0 -0.80889241691E-01  0.81792646681E-01  0.50996526067E-02  0.88750161292E+00  0.88000000000E+00 0.  1.
        -11    1    4    4    0    0  0.29225919693E-01 -0.40179934615E-01  0.12681726968E-01  0.51280296874E-01  0.51100000000E-03 0. -1.
         11    1    4    4    0    0  0.58374948854E-01 -0.57935599394E-01 -0.32897194208E-02  0.82311917155E-01  0.51100000000E-03 0.  1.
</event>
<event>
 8    1  0.1166736E+005  0.1043930E+01  0.7957747E-01            NaN
         13   -1    0    0    0    0  0.00000000000E+00  0.00000000000E+00  0.74505805969E-08  0.10566000000E+00  0.10566000000E+00 0. -1.
     999900   -1    0    0    0    0 -0.00000000000E+00 -0.00000000000E+00 -0.74505805969E-08  0.93827000000E+00  0.93827000000E+00 0.  1.
     999902    2    1    2    0    0 -0.16505058274E-02  0.10586145155E-01  0.22750950298E-01  0.10187825075E+01  0.10184720915E+01 0.  0.
     999903    2    3    3    0    0 -0.71886306962E-01  0.76944391367E-01 -0.70856109518E-01  0.12855850972E+00  0.20460246201E-01 0.  0.
         14    1    1    2    0    0  0.16505058274E-02 -0.10586145155E-01 -0.22750950298E-01  0.25147492483E-01  0.00000000000E+00 0.  1.
     999901    1    3    3    0    0  0.70235801135E-01 -0.66358246212E-01  0.93607059815E-01  0.89022399779E+00  0.88000000000E+00 0. -1.
        -11    1    4    4    0    0 -0.37875363421E-01  0.54946853806E-01 -0.42790003957E-01  0.79277647903E-01  0.51100000000E-03 0. -1.
         11    1    4    4    0    0 -0.34010943541E-01  0.21997537561E-01 -0.28066105560E-01  0.49280861819E-01  0.51100000000E-03 0.  1.
</event>
<event>
 8    1  0.1166736E+005  0.1043930E+01  0.7957747E-01            NaN
         13   -1    0    0    0    0  0.00000000000E+00  0.00000000000E+00  0.74505805969E-08  0.10566000000E+00  0.10566000000E+00 0.  1.
     999900   -1    0    0    0    0 -0.00000000000E+00 -0.00000000000E+00 -0.74505805969E-08  0.93827000000E+00  0.93827000000E+00 0.  1.
     999902    2    1    2    0    0  0.94651642538E-02  0.17752587360E-01  0.62835850342E-02  0.10228533036E+01  0.10226361295E+01 0.  0.
     999903    2    3    3    0    0  0.12374134516E+00  0.20405335399E-01  0.44375508148E-01  0.13464326240E+00  0.20768345436E-01 0.  0.
         14    1    1    2    0    0 -0.94651642538E-02 -0.17752587360E-01 -0.62835850342E-02  0.21076696449E-01  0.00000000000E+00 0. -1.
     999901    1    3    3    0    0 -0.11427618090E+00 -0.26527480393E-02 -0.38091923113E-01  0.88821004115E+00  0.88000000000E+00 0.  1.
        -11    1    4    4    0    0  0.65331233808E-01  0.19122904109E-01  0.30483840917E-01  0.74588077134E-01  0.51100000000E-03 0. -1.
         11    1    4    4    0    0  0.58410111350E-01  0.12824312894E-02  0.13891667231E-01  0.60055185267E-01  0.51100000000E-03 0.  1.
</event>
<event>
 8    1  0.1166736E+005  0.1043930E+01  0.7957747E-01            NaN
         13   -1    0    0    0    0  0.00000000000E+00  0.00000000000E+00  0.74505805969E-08  0.10566000000E+00  0.10566000000E+00 0.  1.
     999900   -1    0    0    0    0 -0.00000000000E+00 -0.00000000000E+00 -0.74505805969E-08  0.93827000000E+00  0.93827000000E+00 0. -1.
     999902    2    1    2    0    0 -0.13859174017E-01  0.18222601320E-01 -0.10919566493E-01  0.10185651259E+01  0.10182492519E+01 0.  0.
     999903    2    3    3    0    0  0.12248801375E+00  0.29799419694E-01  0.64646066807E-02  0.12782005141E+00  0.20121020783E-01 0.  0.
         14    1    1    2    0    0  0.13859174017E-01 -0.18222601320E-01  0.10919566493E-01  0.25364874052E-01  0.00000000000E+00 0. -1.
     999901    1    3    3    0    0 -0.13634718776E+00 -0.11576818375E-01 -0.17384173174E-01  0.89074507454E+00  0.88000000000E+00 0. -1.
        -11    1    4    4    0    0  0.26926826419E-01  0.65874740073E-03  0.72941768114E-02  0.27909748575E-01  0.51100000000E-03 0.  1.
         11    1    4    4    0    0  0.95561187328E-01  0.29140672294E-01 -0.82957013065E-03  0.99910302836E-01  0.51100000000E-03 0. -1.
</event>
<event>
 8    1  0.1166736E+005  0.1043930E+01  0.7957747E-01            NaN
         13   -1    0    0    0    0  0.00000000000E+00  0.00000000000E+00  0.74505805969E-08  0.10566000000E+00  0.10566000000E+00 0. -1.
     999900   -1    0    0    0    0 -0.00000000000E+00 -0.00000000000E+00 -0.74505805969E-08  0.93827000000E+00  0.93827000000E+00 0. -1.
     999902    2    1    2    0    0  0.64652847439E-02 -0.29758907199E-02 -0.22452788359E-01  0.10203761566E+01  0.10201042679E+01 0.  0.
     999903    2    3    3    0    0  0.21411928312E-01  0.12584578123E+00 -0.23553902590E-01  0.13087087965E+00  0.16636390404E-01 0.  0.
         14    1    1    2    0    0 -0.64652847439E-02  0.29758907199E-02  0.22452788359E-01  0.23553843370E-01  0.00000000000E+00 0. -1.
     999901    1    3    3    0    0 -0.14946643569E-01 -0.12882167195E+00  0.11011142304E-02  0.88950527698E+00  0.88000000000E+00 0.  1.
        -11    1    4    4    0    0  0.17070179645E-01  0.10210908264E+00 -0.12350357578E-01  0.10426144178E+00  0.51100000000E-03 0. -1.
         11    1    4    4    0    0  0.43417486680E-02  0.23736698597E-01 -0.11203545012E-01  0.26609437868E-01  0.51100000000E-03 0.  1.
</event>
<event>
 8    1  0.1166736E+005  0.1043930E+01  0.7957747E-01            NaN
         13   -1    0    0    0    0  0.00000000000E+00  0.00000000000E+00  0.74505805969E-08  0.10566000000E+00  0.10566000000E+00 0. -1.
     999900   -1    0    0    0    0 -0.00000000000E+00 -0.00000000000E+00 -0.74505805969E-08  0.93827000000E+00  0.93827000000E+00 0.  1.
     999902    2    1    2    0    0 -0.16823533377E-01 -0.17016737280E-01 -0.16291885699E-02  0.10199455284E+01  0.10196634867E+01 0.  0.
     999903    2    3    3    0    0  0.61841017192E-01 -0.32943714145E-01 -0.10760166420E+00  0.12996128937E+00  0.20055395507E-01 0.  0.
         14    1    1    2    0    0  0.16823533377E-01  0.17016737280E-01  0.16291885699E-02  0.23984471608E-01  0.00000000000E+00 0. -1.
     999901    1    3    3    0    0 -0.78664550569E-01  0.15926976865E-01  0.10597247563E+00  0.88998423902E+00  0.88000000000E+00 0. -1.
        -11    1    4    4    0    0  0.21893494699E-01 -0.10727862412E-01 -0.55669255059E-01  0.60776140235E-01  0.51100000000E-03 0. -1.
         11    1    4    4    0    0  0.39947522493E-01 -0.22215851733E-01 -0.51932409138E-01  0.69185149139E-01  0.51100000000E-03 0.  1.
</event>
<event>
 8    1  0.1166736E+005  0.1043930E+01  0.7957747E-01            NaN
         13   -1    0    0    0    0  0.00000000000E+00  0.00000000000E+00  0.74505805969E-08  0.10566000000E+00  0.10566000000E+00 0.  1.
     999900   -1    0    0    0    0 -0.00000000000E+00 -0.00000000000E+00 -0.74505805969E-08  0.93827000000E+00  0.93827000000E+00 0. -1.
     999902    2    1    2    0    0  0.62639670029E-02 -0.92511179187E-02  0.19990183864E-01  0.10210296088E+01  0.10207727632E+01 0.  0.
     999903    2    3    3    0    0  0.10004913678E+00  0.69819600486E-01 -0.41721342305E-01  0.13038032372E+00  0.19332667392E-01 0.  0.
         14    1    1    2    0    0 -0.62639670029E-02  0.92511179187E-02 -0.19990183864E-01  0.22900391181E-01  0.00000000000E+00 0. -1.
     999901    1    3    3    0    0 -0.93785169775E-01 -0.79070718405E-01  0.61711526168E-01  0.89064928510E+00  0.88000000000E+00 0. -1.
        -11    1    4    4    0    0  0.50213128989E-01  0.28883439832E-01 -0.28427787089E-01  0.64529153250E-01  0.51100000000E-03 0. -1.
         11    1    4    4    0    0  0.49836007789E-01  0.40936160654E-01 -0.13293555216E-01  0.65851170473E-01  0.51100000000E-03 0.  1.
</event>
<event>
 8    1  0.1166736E+005  0.1043930E+01  0.7957747E-01            NaN
         13   -1    0    0    0    0  0.00000000000E+00  0.00000000000E+00  0.74505805969E-08  0.10566000000E+00  0.10566000000E+00 0.  1.
     999900   -1    0    0    0    0 -0.00000000000E+00 -0.00000000000E+00 -0.74505805969E-08  0.93827000000E+00  0.93827000000E+00 0.  1.
     999902    2    1    2    0    0  0.23961715970E-01  0.19045509093E-02  0.81488055350E-04  0.10198925753E+01  0.10196092719E+01 0.  0.
     999903    2    3    3    0    0 -0.87890517357E-02 -0.12709176624E+00  0.11958455860E-01  0.12980621713E+00  0.21842272328E-01 0.  0.
         14    1    1    2    0    0 -0.23961715970E-01 -0.19045509093E-02 -0.81488055350E-04  0.24037424710E-01  0.00000000000E+00 0. -1.
     999901    1    3    3    0    0  0.32750767706E-01  0.12899631715E+00 -0.11876967805E-01  0.89008635816E+00  0.88000000000E+00 0.  1.
        -11    1    4    4    0    0 -0.15616375796E-01 -0.69052207315E-01  0.75135933825E-02  0.71195461475E-01  0.51100000000E-03 0.  1.
         11    1    4    4    0    0  0.68273240607E-02 -0.58039558930E-01  0.44448624779E-02  0.58610755652E-01  0.51100000000E-03 0. -1.
</event>
<event>
 8    1  0.1166736E+005  0.1043930E+01  0.7957747E-01            NaN
         13   -1    0    0    0    0  0.00000000000E+00  0.00000000000E+00  0.74505805969E-08  0.10566000000E+00  0.10566000000E+00 0.  1.
     999900   -1    0    0    0    0 -0.00000000000E+00 -0.00000000000E+00 -0.74505805969E-08  0.93827000000E+00  0.93827000000E+00 0.  1.
     999902    2    1    2    0    0 -0.62846099243E-03  0.57236318411E-02  0.22881342769E-01  0.10203352809E+01  0.10200624366E+01 0.  0.
     999903    2    3    3    0    0  0.31364509259E-01 -0.12163756612E+00  0.31091067824E-01  0.13055338371E+00  0.17265618117E-01 0.  0.
         14    1    1    2    0    0  0.62846099243E-03 -0.57236318411E-02 -0.22881342769E-01  0.23594719146E-01  0.00000000000E+00 0. -1.
     999901    1    3    3    0    0 -0.31992970251E-01  0.12736119796E+00 -0.82097250552E-02  0.88978189714E+00  0.88000000000E+00 0. -1.
        -11    1    4    4    0    0  0.99639408659E-02 -0.14895610249E-01  0.41610976168E-02  0.18404759619E-01  0.51100000000E-03 0. -1.
         11    1    4    4    0    0  0.21400568393E-01 -0.10674195587E+00  0.26929970208E-01  0.11214862410E+00  0.51100000000E-03 0.  1.
</event>
<event>
 7    1  0.1166736E+005  0.1043930E+01  0.7957747E-01            NaN
         13   -1    0    0    0    0  0.00000000000E+00  0.00000000000E+00  0.74505805969E-08  0.10566000000E+00  0.10566000000E+00 0. -1.
     999900   -1    0    0    0    0 -0.00000000000E+00 -0.00000000000E+00 -0.74505805969E-08  0.93827000000E+00  0.93827000000E+00 0. -1.
     999903    2    1    2    0    0 -0.78981783218E-01 -0.82110586879E-01  0.31685579820E-01  0.11986573299E+00  0.19584366721E-01 0.  0.
         14    1    1    2    0    0  0.37755430002E-01  0.94703527582E-02 -0.82999033694E-02  0.39800106432E-01  0.00000000000E+00 0.  1.
     999901    1    1    2    0    0  0.41226353215E-01  0.72640234121E-01 -0.23385676451E-01  0.88426416057E+00  0.88000000000E+00 0. -1.
        -11    1    3    3    0    0 -0.17439868328E-01 -0.28814764907E-01  0.42415499381E-02  0.33951311474E-01  0.51100000000E-03 0.  1.
         11    1    3    3    0    0 -0.61541914890E-01 -0.53295821972E-01  0.27444029882E-01  0.85914421520E-01  0.51100000000E-03 0. -1.
</event>
<event>
 8    1  0.1166736E+005  0.1043930E+01  0.7957747E-01            NaN
         13   -1    0    0    0    0  0.00000000000E+00  0.00000000000E+00  0.74505805969E-08  0.10566000000E+00  0.10566000000E+00 0.  1.
     999900   -1    0    0    0    0 -0.00000000000E+00 -0.00000000000E+00 -0.74505805969E-08  0.93827000000E+00  0.93827000000E+00 0. -1.
     999902    2    1    2    0    0  0.17269730027E-01 -0.30169631335E-03  0.17391121537E-01  0.10194190697E+01  0.10191243565E+01 0.  0.
     999903    2    3    3    0    0 -0.11666217814E+00  0.24674309835E-01 -0.39424830680E-01  0.12712449427E+00  0.19683353241E-01 0.  0.
         14    1    1    2    0    0 -0.17269730027E-01  0.30169631335E-03 -0.17391121537E-01  0.24510930300E-01  0.00000000000E+00 0. -1.
     999901    1    3    3    0    0  0.13393190817E+00 -0.24976006149E-01  0.56815952217E-01  0.89229457543E+00  0.88000000000E+00 0.  1.
        -11    1    4    4    0    0 -0.34222920542E-01 -0.69985824783E-03 -0.15710123513E-01  0.37666526171E-01  0.51100000000E-03 0.  1.
         11    1    4    4    0    0 -0.82439257603E-01  0.25374168083E-01 -0.23714707167E-01  0.89457968102E-01  0.51100000000E-03 0. -1.
</event>
<event>
 8    1  0.1166736E+005  0.1043930E+01  0.7957747E-01            NaN
         13   -1    0    0    0    0  0.00000000000E+00  0.00000000000E+00  0.74505805969E-08  0.10566000000E+00  0.10566000000E+00 0. -1.
     999900   -1    0    0    0    0 -0.00000000000E+00 -0.00000000000E+00 -0.74505805969E-08  0.93827000000E+00  0.93827000000E+00 0. -1.
     999902    2    1    2    0    0 -0.87939839854E-02 -0.10053866375E-01 -0.18897378608E-01  0.10207885804E+01  0.10205262371E+01 0.  0.
     999903    2    3    3    0    0 -0.95060242078E-02 -0.12540335569E+00  0.34157332675E-01  0.13167620612E+00  0.18855603131E-01 0.  0.
         14    1    1    2    0    0  0.87939839854E-02  0.10053866375E-01  0.18897378608E-01  0.23141419613E-01  0.00000000000E+00 0. -1.
     999901    1    3    3    0    0  0.71204022240E-03  0.11534948931E+00 -0.53054711283E-01  0.88911237427E+00  0.88000000000E+00 0. -1.
        -11    1    4    4    0    0 -0.48743345023E-02 -0.10124799991E-01  0.66585168913E-02  0.13071636466E-01  0.51100000000E-03 0.  1.
         11    1    4    4    0    0 -0.46316897056E-02 -0.11527855569E+00  0.27498815784E-01  0.11860456965E+00  0.51100000000E-03 0. -1.
</event>
<event>
 7    1  0.1166736E+005  0.1043930E+01  0.7957747E-01            NaN
         13   -1    0    0    0    0  0.00000000000E+00  0.00000000000E+00  0.74505805969E-08  0.10566000000E+00  0.10566000000E+00 0.  1.
     999900   -1    0    0    0    0 -0.00000000000E+00 -0.00000000000E+00 -0.74505805969E-08  0.93827000000E+00  0.93827000000E+00 0.  1.
     999903    2    1    2    0    0  0.11882840309E+00 -0.77820002388E-02 -0.13548297673E-02  0.12087415269E+00  0.20687588424E-01 0.  0.
         14    1    1    2    0    0 -0.33018842437E-01 -0.17515375835E-01 -0.90585980166E-02  0.38458946223E-01  0.00000000000E+00 0. -1.
     999901    1    1    2    0    0 -0.85809560657E-01  0.25297376074E-01  0.10413427784E-01  0.88459690109E+00  0.88000000000E+00 0. -1.
        -11    1    3    3    0    0  0.75609126359E-01 -0.14252334551E-01 -0.43697633685E-02  0.77066367384E-01  0.51100000000E-03 0.  1.
         11    1    3    3    0    0  0.43219276736E-01  0.64703343122E-02  0.30149336012E-02  0.43807785305E-01  0.51100000000E-03 0. -1.
</event>
<event>
 8    1  0.1166736E+005  0.1043930E+01  0.7957747E-01            NaN
         13   -1    0    0    0    0  0.00000000000E+00  0.00000000000E+00  0.74505805969E-08  0.10566000000E+00  0.10566000000E+00 0.  1.
     999900   -1    0    0    0    0 -0.00000000000E+00 -0.00000000000E+00 -0.74505805969E-08  0.93827000000E+00  0.93827000000E+00 0.  1.
     999902    2    1    2    0    0 -0.33228748627E-02 -0.11942473125E-01  0.19772448250E-01  0.10205930364E+01  0.10203261890E+01 0.  0.
     999903    2    3    3    0    0  0.78695189024E-03  0.12430824018E+00 -0.27079460816E-01  0.12886648135E+00  0.20496705738E-01 0.  0.
         14    1    1    2    0    0  0.33228748627E-02  0.11942473125E-01 -0.19772448250E-01  0.23336963630E-01  0.00000000000E+00 0. -1.
     999901    1    3    3    0    0 -0.41098267529E-02 -0.13625071331E+00  0.46851909066E-01  0.89172655502E+00  0.88000000000E+00 0. -1.
        -11    1    4    4    0    0 -0.82973647004E-02  0.52203950612E-01 -0.16799434871E-01  0.55466934776E-01  0.51100000000E-03 0. -1.
         11    1    4    4    0    0  0.90843165906E-02  0.72104289569E-01 -0.10280025945E-01  0.73399546570E-01  0.51100000000E-03 0.  1.
</event>
<event>
 8    1  0.1166736E+005  0.1043930E+01  0.7957747E-01            NaN
         13   -1    0    0    0    0  0.00000000000E+00  0.00000000000E+00  0.74505805969E-08  0.10566000000E+00  0.10566000000E+00 0. -1.
     999900   -1    0    0    0    0 -0.00000000000E+00 -0.00000000000E+00 -0.74505805969E-08  0.93827000000E+00  0.93827000000E+00 0.  1.
     999902    2    1    2    0    0  0.99423717003E-02 -0.21990764439E-01 -0.60377633944E-02  0.10190523180E+01  0.10187486087E+01 0.  0.
     999903    2    3    3    0    0 -0.94571336248E-01 -0.78673425683E-01 -0.38349379295E-01  0.13046913125E+00  0.20451742399E-01 0.  0.
         14    1    1    2    0    0 -0.99423717003E-02  0.21990764439E-01  0.60377633944E-02  0.24877682015E-01  0.00000000000E+00 0. -1.
     999901    1    3    3    0    0  0.10451370795E+00  0.56682661245E-01  0.32311615900E-01  0.88858318674E+00  0.88000000000E+00 0. -1.
        -11    1    4    4    0    0 -0.81726246351E-01 -0.62697854327E-01 -0.38489341734E-01  0.10996313395E+00  0.51100000000E-03 0.  1.
         11    1    4    4    0    0 -0.12845089897E-01 -0.15975571357E-01  0.13996243918E-03  0.20505997296E-01  0.51100000000E-03 0. -1.
</event>
<event>
 8    1  0.1166736E+005  0.1043930E+01  0.7957747E-01            NaN
         13   -1    0    0    0    0  0.00000000000E+00  0.00000000000E+00  0.74505805969E-08  0.10566000000E+00  0.10566000000E+00 0.  1.
     999900   -1    0    0    0    0 -0.00000000000E+00 -0.00000000000E+00 -0.74505805969E-08  0.93827000000E+00  0.93827000000E+00 0. -1.
     999902    2    1    2    0    0 -0.10328900867E-01 -0.20715848998E-01  0.49863591384E-02  0.10202509719E+01  0.10199761514E+01 0.  0.
     999903    2    3    3    0    0 -0.65485511110E-01 -0.54465005328E-01 -0.98555267220E-01  0.13182420196E+00  0.20240814107E-01 0.  0.
         14    1    1    2    0    0  0.10328900867E-01  0.20715848998E-01 -0.49863591384E-02  0.23679028069E-01  0.00000000000E+00 0.  1.
     999901    1    3    3    0    0  0.55156610243E-01  0.33749156330E-01  0.10354162636E+00  0.88842676997E+00  0.88000000000E+00 0.  1.
        -11    1    4    4    0    0 -0.20882349098E-01 -0.30034108486E-01 -0.38072097241E-01  0.52800245130E-01  0.51100000000E-03 0.  1.
         11    1    4    4    0    0 -0.44603162012E-01 -0.24430896842E-01 -0.60483169979E-01  0.79023956834E-01  0.51100000000E-03 0. -1.
</event>
<event>
 8    1  0.1166736E+005  0.1043930E+01  0.7957747E-01            NaN
         13   -1    0    0    0    0  0.00000000000E+00  0.00000000000E+00  0.74505805969E-08  0.10566000000E+00  0.10566000000E+00 0.  1.
     999900   -1    0    0    0    0 -0.00000000000E+00 -0.00000000000E+00 -0.74505805969E-08  0.93827000000E+00  0.93827000000E+00 0. -1.
     999902    2    1    2    0    0 -0.13658971575E-01  0.13466014686E-01 -0.14137866313E-01  0.10201018587E+01  0.10198235248E+01 0.  0.
     999903    2    3    3    0    0 -0.68398918061E-01  0.10819705899E+00  0.27520102823E-01  0.13234861654E+00  0.19333511677E-01 0.  0.
         14    1    1    2    0    0  0.13658971575E-01 -0.13466014686E-01  0.14137866313E-01  0.23828141344E-01  0.00000000000E+00 0.  1.
     999901    1    3    3    0    0  0.54739946486E-01 -0.94731044307E-01 -0.41657969136E-01  0.88775324212E+00  0.88000000000E+00 0. -1.
        -11    1    4    4    0    0 -0.30625456674E-01  0.33404302964E-01  0.50873800668E-02  0.45606015063E-01  0.51100000000E-03 0. -1.
         11    1    4    4    0    0 -0.37773461387E-01  0.74792756029E-01  0.22432722757E-01  0.86742601476E-01  0.51100000000E-03 0.  1.
</event>
<event>
 8    1  0.1462357E+005  0.1043930E+01  0.7957747E-01            NaN
         13   -1    0    0    0    0  0.00000000000E+00  0.00000000000E+00  0.74505805969E-08  0.10566000000E+00  0.10566000000E+00 0. -1.
     999900   -1    0    0    0    0 -0.00000000000E+00 -0.00000000000E+00 -0.74505805969E-08  0.93827000000E+00  0.93827000000E+00 0.  1.
     999902    2    1    2    0    0 -0.12254543351E-02  0.80217299969E-02 -0.22348702528E-01  0.10201536589E+01  0.10198765481E+01 0.  0.
     999903    2    3    3    0    0  0.12564204300E+00 -0.75671822318E-02 -0.29722976932E-01  0.13088836893E+00  0.20127705953E-01 0.  0.
         14    1    1    2    0    0  0.12254543351E-02 -0.80217299969E-02  0.22348702528E-01  0.23776341080E-01  0.00000000000E+00 0. -1.
     999901    1    3    3    0    0 -0.12686749733E+00  0.15588912229E-01  0.73742744043E-02  0.88926528999E+00  0.88000000000E+00 0. -1.
        -11    1    4    4    0    0  0.49279829480E-01 -0.12344696394E-01 -0.14982405634E-01  0.52968167066E-01  0.51100000000E-03 0.  1.
         11    1    4    4    0    0  0.76362213518E-01  0.47775141626E-02 -0.14740571298E-01  0.77920201861E-01  0.51100000000E-03 0. -1.
</event>
<event>
 8    1  0.1166736E+005  0.1043930E+01  0.7957747E-01            NaN
         13   -1    0    0    0    0  0.00000000000E+00  0.00000000000E+00  0.74505805969E-08  0.10566000000E+00  0.10566000000E+00 0.  1.
     999900   -1    0    0    0    0 -0.00000000000E+00 -0.00000000000E+00 -0.74505805969E-08  0.93827000000E+00  0.93827000000E+00 0. -1.
     999902    2    1    2    0    0 -0.12011268562E-01 -0.14896842425E-01  0.85644305662E-02  0.10229648871E+01  0.10227500302E+01 0.  0.
     999903    2    3    3    0    0  0.11828227698E-01 -0.87081960800E-01  0.10035454453E+00  0.13493085742E+00  0.20300906619E-01 0.  0.
         14    1    1    2    0    0  0.12011268562E-01  0.14896842425E-01 -0.85644305662E-02  0.20965112870E-01  0.00000000000E+00 0. -1.
     999901    1    3    3    0    0 -0.23839496260E-01  0.72185118374E-01 -0.91790113965E-01  0.88803402971E+00  0.88000000000E+00 0. -1.
        -11    1    4    4    0    0  0.10242881217E-01 -0.26022617408E-01  0.41950382176E-01  0.50420124138E-01  0.51100000000E-03 0. -1.
         11    1    4    4    0    0  0.15853464812E-02 -0.61059343392E-01  0.58404162356E-01  0.84510733285E-01  0.51100000000E-03 0.  1.
</event>
<event>
 8    1  0.1166736E+005  0.1043930E+01  0.7957747E-01            NaN
         13   -1    0    0    0    0  0.00000000000E+00  0.00000000000E+00  0.74505805969E-08  0.10566000000E+00  0.10566000000E+00 0.  1.
     999900   -1    0    0    0    0 -0.00000000000E+00 -0.00000000000E+00 -0.74505805969E-08  0.93827000000E+00  0.93827000000E+00 0.  1.
     999902    2    1    2    0    0 -0.79777044660E-02 -0.12572196913E-01 -0.18407744146E-01  0.10202540851E+01  0.10199793376E+01 0.  0.
     999903    2    3    3    0    0  0.73351161078E-01 -0.97256233850E-01  0.42510095861E-01  0.13036827569E+00  0.18697892993E-01 0.  0.
         14    1    1    2    0    0  0.79777044660E-02  0.12572196913E-01  0.18407744146E-01  0.23675914941E-01  0.00000000000E+00 0.  1.
     999901    1    3    3    0    0 -0.81328865544E-01  0.84684036937E-01 -0.60917840007E-01  0.88988580937E+00  0.88000000000E+00 0.  1.
        -11    1    4    4    0    0  0.55274811494E-01 -0.58604830351E-01  0.28543060450E-01  0.85468113042E-01  0.51100000000E-03 0. -1.
         11    1    4    4    0    0  0.18076349585E-01 -0.38651403499E-01  0.13967035411E-01  0.44900162649E-01  0.51100000000E-03 0.  1.
</event>
<event>
 8    1  0.1166736E+005  0.1043930E+01  0.7957747E-01            NaN
         13   -1    0    0    0    0  0.00000000000E+00  0.00000000000E+00  0.74505805969E-08  0.10566000000E+00  0.10566000000E+00 0.  1.
     999900   -1    0    0    0    0 -0.00000000000E+00 -0.00000000000E+00 -0.74505805969E-08  0.93827000000E+00  0.93827000000E+00 0.  1.
     999902    2    1    2    0    0  0.19234290199E-01 -0.38723513142E-02 -0.13386543262E-01  0.10201781040E+01  0.10199015694E+01 0.  0.
     999903    2    3    3    0    0 -0.58434581703E-01 -0.10675269447E+00  0.38568379685E-01  0.12927062691E+00  0.20313467351E-01 0.  0.
         14    1    1    2    0    0 -0.19234290199E-01  0.38723513142E-02  0.13386543262E-01  0.23751896023E-01  0.00000000000E+00 0.  1.
     999901    1    3    3    0    0  0.77668871902E-01  0.10288034315E+00 -0.51954922947E-01  0.89090747706E+00  0.88000000000E+00 0. -1.
        -11    1    4    4    0    0 -0.53141823171E-01 -0.87889832495E-01  0.38458791724E-01  0.10967231103E+00  0.51100000000E-03 0. -1.
         11    1    4    4    0    0 -0.52927585326E-02 -0.18862861975E-01  0.10958796050E-03  0.19598315879E-01  0.51100000000E-03 0.  1.
</event>
<event>
 8    1  0.1166736E+005  0.1043930E+01  0.7957747E-01            NaN
         13   -1    0    0    0    0  0.00000000000E+00  0.00000000000E+00  0.74505805969E-08  0.10566000000E+00  0.10566000000E+00 0. -1.
     999900   -1    0    0    0    0 -0.00000000000E+00 -0.00000000000E+00 -0.74505805969E-08  0.93827000000E+00  0.93827000000E+00 0.  1.
     999902    2    1    2    0    0 -0.16089380702E-01  0.10666556680E-01 -0.23068950842E-01  0.10138497723E+01  0.10134034442E+01 0.  0.
     999903    2    3    3    0    0  0.70333710250E-01 -0.62932500147E-01 -0.79177683255E-01  0.12478624162E+00  0.19878888283E-01 0.  0.
         14    1    1    2    0    0  0.16089380702E-01 -0.10666556680E-01  0.23068950842E-01  0.30080227654E-01  0.00000000000E+00 0. -1.
     999901    1    3    3    0    0 -0.86423090952E-01  0.73599056827E-01  0.56108732413E-01  0.88906353073E+00  0.88000000000E+00 0. -1.
        -11    1    4    4    0    0  0.56519711618E-02 -0.14102994584E-01 -0.96674692098E-02  0.18015557615E-01  0.51100000000E-03 0. -1.
         11    1    4    4    0    0  0.64681739089E-01 -0.48829505563E-01 -0.69510214046E-01  0.10677068400E+00  0.51100000000E-03 0.  1.
</event>
<event>
 8    1  0.1166736E+005  0.1043930E+01  0.7957747E-01            NaN
         13   -1    0    0    0    0  0.00000000000E+00  0.00000000000E+00  0.74505805969E-08  0.10566000000E+00  0.10566000000E+00 0.  1.
     999900   -1    0    0    0    0 -0.00000000000E+00 -0.00000000000E+00 -0.74505805969E-08  0.93827000000E+00  0.93827000000E+00 0.  1.
     999902    2    1    2    0    0 -0.16539569102E-01 -0.59958124645E-02  0.15549080661E-01  0.10204506256E+01  0.10201804734E+01 0.  0.
     999903    2    3    3    0    0 -0.56782340347E-01  0.82368420933E-02 -0.11471217444E+00  0.12983845204E+00  0.20175750823E-01 0.  0.
         14    1    1    2    0    0  0.16539569102E-01  0.59958124645E-02 -0.15549080661E-01  0.23479374408E-01  0.00000000000E+00 0. -1.
     999901    1    3    3    0    0  0.40242771245E-01 -0.14232654558E-01  0.13026125510E+00  0.89061217355E+00  0.88000000000E+00 0. -1.
        -11    1    4    4    0    0 -0.50654508734E-01  0.13808540697E-01 -0.10009578009E+00  0.11303088677E+00  0.51100000000E-03 0.  1.
         11    1    4    4    0    0 -0.61278316137E-02 -0.55716986036E-02 -0.14616394347E-01  0.16807565270E-01  0.51100000000E-03 0. -1.
</event>
<event>
 8    1  0.1166736E+005  0.1043930E+01  0.7957747E-01            NaN
         13   -1    0    0    0    0  0.00000000000E+00  0.00000000000E+00  0.74505805969E-08  0.10566000000E+00  0.10566000000E+00 0.  1.
     999900   -1    0    0    0    0 -0.00000000000E+00 -0.00000000000E+00 -0.74505805969E-08  0.93827000000E+00  0.93827000000E+00 0. -1.
     999902    2    1    2    0    0  0.22301064764E-02 -0.22630545951E-01  0.47611431956E-02  0.10206967594E+01  0.10204323060E+01 0.  0.
     999903    2    3    3    0    0  0.12488905849E+00 -0.30630214795E-01 -0.21200650549E-01  0.13177424986E+00  0.19480717464E-01 0.  0.
         14    1    1    2    0    0 -0.22301064764E-02  0.22630545951E-01 -0.47611431956E-02  0.23233240615E-01  0.00000000000E+00 0. -1.
     999901    1    3    3    0    0 -0.12265895201E+00  0.79996688439E-02  0.25961793745E-01  0.88892250953E+00  0.88000000000E+00 0. -1.
        -11    1    4    4    0    0  0.38477255713E-01 -0.22164248440E-02 -0.81460636387E-03  0.38553034262E-01  0.51100000000E-03 0. -1.
         11    1    4    4    0    0  0.86411802776E-01 -0.28413789951E-01 -0.20386044185E-01  0.93221215595E-01  0.51100000000E-03 0.  1.
</event>
<event>
 8    1  0.1166736E+005  0.1043930E+01  0.7957747E-01            NaN
         13   -1    0    0    0    0  0.00000000000E+00  0.00000000000E+00  0.74505805969E-08  0.10566000000E+00  0.10566000000E+00 0. -1.
     999900   -1    0    0    0    0 -0.00000000000E+00 -0.00000000000E+00 -0.74505805969E-08  0.93827000000E+00  0.93827000000E+00 0. -1.
     999902    2    1    2    0    0 -0.11236749158E-01 -0.26368151181E-01  0.11815444784E-02  0.10152430696E+01  0.10148376966E+01 0.  0.
     999903    2    3    3    0    0 -0.43404733796E-01 -0.76010283463E-01  0.92103556720E-01  0.12858308243E+00  0.19723331864E-01 0.  0.
         14    1    1    2    0    0  0.11236749158E-01  0.26368151181E-01 -0.11815444784E-02  0.28686930398E-01  0.00000000000E+00 0. -1.
     999901    1    3    3    0    0  0.32167984638E-01  0.49642132283E-01 -0.90922012242E-01  0.88665998717E+00  0.88000000000E+00 0. -1.
        -11    1    4    4    0    0 -0.21123883408E-01 -0.42193540085E-01  0.62986789565E-01  0.78702668670E-01  0.51100000000E-03 0. -1.
         11    1    4    4    0    0 -0.22280850388E-01 -0.33816743379E-01  0.29116767155E-01  0.49880413765E-01  0.51100000000E-03 0.  1.
</event>
<event>
 8    1  0.1166736E+005  0.1043930E+01  0.7957747E-01            NaN
         13   -1    0    0    0    0  0.00000000000E+00  0.00000000000E+00  0.74505805969E-08  0.10566000000E+00  0.10566000000E+00 0. -1.
     999900   -1    0    0    0    0 -0.00000000000E+00 -0.00000000000E+00 -0.74505805969E-08  0.93827000000E+00  0.93827000000E+00 0. -1.
     999902    2    1    2    0    0 -0.99050741527E-02  0.16841168142E-01  0.14751061188E-01  0.10194487981E+01  0.10191548081E+01 0.  0.
     999903    2    3    3    0    0  0.19448691966E-01 -0.73051464628E-01  0.10371323361E+00  0.12992274617E+00  0.20216751519E-01 0.  0.
         14    1    1    2    0    0  0.99050741527E-02 -0.16841168142E-01 -0.14751061188E-01  0.24481201860E-01  0.00000000000E+00 0.  1.
     999901    1    3    3    0    0 -0.29353766119E-01  0.89892632770E-01 -0.88962172426E-01  0.88952605197E+00  0.88000000000E+00 0. -1.
        -11    1    4    4    0    0  0.11716356719E-01 -0.36900882177E-01  0.36496976857E-01  0.53209384143E-01  0.51100000000E-03 0. -1.
         11    1    4    4    0    0  0.77323352473E-02 -0.36150582451E-01  0.67216256756E-01  0.76713362026E-01  0.51100000000E-03 0.  1.
</event>
<event>
 8    1  0.1166736E+005  0.1043930E+01  0.7957747E-01            NaN
         13   -1    0    0    0    0  0.00000000000E+00  0.00000000000E+00  0.74505805969E-08  0.10566000000E+00  0.10566000000E+00 0. -1.
     999900   -1    0    0    0    0 -0.00000000000E+00 -0.00000000000E+00 -0.74505805969E-08  0.93827000000E+00  0.93827000000E+00 0. -1.
     999902    2    1    2    0    0  0.22601282940E-01  0.11394443051E-01  0.27566092291E-02  0.10184692416E+01  0.10181509446E+01 0.  0.
     999903    2    3    3    0    0 -0.35312778781E-01  0.11643976843E-01 -0.12077774016E+00  0.12795543696E+00  0.20068801300E-01 0.  0.
         14    1    1    2    0    0 -0.22601282940E-01 -0.11394443051E-01 -0.27566092291E-02  0.25460758382E-01  0.00000000000E+00 0. -1.
     999901    1    3    3    0    0  0.57914061721E-01 -0.24953379219E-03  0.12353434939E+00  0.89051380466E+00  0.88000000000E+00 0.  1.
        -11    1    4    4    0    0 -0.37537788687E-01  0.12784507011E-01 -0.11474494130E+00  0.12140507351E+00  0.51100000000E-03 0.  1.
         11    1    4    4    0    0  0.22250099061E-02 -0.11405301677E-02 -0.60327988642E-02  0.65503634465E-02  0.51100000000E-03 0. -1.
</event>
<event>
 8    1  0.1166736E+005  0.1043930E+01  0.7957747E-01            NaN
         13   -1    0    0    0    0  0.00000000000E+00  0.00000000000E+00  0.74505805969E-08  0.10566000000E+00  0.10566000000E+00 0.  1.
     999900   -1    0    0    0    0 -0.00000000000E+00 -0.00000000000E+00 -0.74505805969E-08  0.93827000000E+00  0.93827000000E+00 0.  1.
     999902    2    1    2    0    0 -0.15540158409E-01 -0.15289394495E-01  0.97936783562E-03  0.10221075054E+01  0.10218745184E+01 0.  0.
     999903    2    3    3    0    0 -0.88777494675E-01  0.94806928263E-01  0.14101503197E-01  0.13213160793E+00  0.19751258579E-01 0.  0.
         14    1    1    2    0    0  0.15540158409E-01  0.15289394495E-01 -0.97936783562E-03  0.21822494558E-01  0.00000000000E+00 0. -1.
     999901    1    3    3    0    0  0.73237336266E-01 -0.11009632276E+00 -0.13122135361E-01  0.88997589751E+00  0.88000000000E+00 0. -1.
        -11    1    4    4    0    0 -0.57273123946E-01  0.49641529610E-01  0.23997333368E-02  0.75832130589E-01  0.51100000000E-03 0.  1.
         11    1    4    4    0    0 -0.31504370728E-01  0.45165398653E-01  0.11701769860E-01  0.56299477345E-01  0.51100000000E-03 0. -1.
</event>
<event>
 8    1  0.1166736E+005  0.1043930E+01  0.7957747E-01            NaN
         13   -1    0    0    0    0  0.00000000000E+00  0.00000000000E+00  0.74505805969E-08  0.10566000000E+00  0.10566000000E+00 0.  1.
     999900   -1    0    0    0    0 -0.00000000000E+00 -0.00000000000E+00 -0.74505805969E-08  0.93827000000E+00  0.93827000000E+00 0.  1.
     999902    2    1    2    0    0  0.37593335906E-02 -0.77114493239E-02 -0.21627225932E-01  0.10206633728E+01  0.10203981501E+01 0.  0.
     999903    2    3    3    0    0  0.16272882416E-01 -0.12946237240E+00  0.96202618930E-03  0.13190572840E+00  0.19310181790E-01 0.  0.
         14    1    1    2    0    0 -0.37593335906E-02  0.77114493239E-02  0.21627225932E-01  0.23266627199E-01  0.00000000000E+00 0.  1.
     999901    1    3    3    0    0 -0.12513548826E-01  0.12175092307E+00 -0.22589252121E-01  0.88875764440E+00  0.88000000000E+00 0. -1.
        -11    1    4    4    0    0  0.26601960266E-03 -0.20195032997E-01 -0.64893968489E-02  0.21219884935E-01  0.51100000000E-03 0.  1.
         11    1    4    4    0    0  0.16006862814E-01 -0.10926733940E+00  0.74514230382E-02  0.11068584346E+00  0.51100000000E-03 0. -1.
</event>
<event>
 8    1  0.1166736E+005  0.1043930E+01  0.7957747E-01            NaN
         13   -1    0    0    0    0  0.00000000000E+00  0.00000000000E+00  0.74505805969E-08  0.10566000000E+00  0.10566000000E+00 0. -1.
     999900   -1    0    0    0    0 -0.00000000000E+00 -0.00000000000E+00 -0.74505805969E-08  0.93827000000E+00  0.93827000000E+00 0.  1.
     999902    2    1    2    0    0  0.76921244438E-02  0.12978997639E-01  0.17798425812E-01  0.10205974665E+01  0.10203307216E+01 0.  0.
     999903    2    3    3    0    0 -0.79177644800E-01  0.70887341453E-01  0.76718799713E-01  0.13246946697E+00  0.19190383919E-01 0.  0.
         14    1    1    2    0    0 -0.76921244438E-02 -0.12978997639E-01 -0.17798425812E-01  0.23332533501E-01  0.00000000000E+00 0.  1.
     999901    1    3    3    0    0  0.86869769244E-01 -0.57908343814E-01 -0.58920373901E-01  0.88812799953E+00  0.88000000000E+00 0.  1.
        -11    1    4    4    0    0 -0.53524062527E-01  0.41403877351E-01  0.58034609427E-01  0.89148097800E-01  0.51100000000E-03 0.  1.
         11    1    4    4    0    0 -0.25653582273E-01  0.29483464102E-01  0.18684190286E-01  0.43321369167E-01  0.51100000000E-03 0. -1.
</event>
<event>
 8    1  0.1166736E+005  0.1043930E+01  0.7957747E-01            NaN
         13   -1    0    0    0    0  0.00000000000E+00  0.00000000000E+00  0.74505805969E-08  0.10566000000E+00  0.10566000000E+00 0. -1.
     999900   -1    0    0    0    0 -0.00000000000E+00 -0.00000000000E+00 -0.74505805969E-08  0.93827000000E+00  0.93827000000E+00 0.  1.
     999902    2    1    2    0    0 -0.16462247276E-01  0.16652899739E-01  0.23507956534E-02  0.10203959630E+01  0.10201245368E+01 0.  0.
     999903    2    3    3    0    0  0.24942102922E-02 -0.76074494073E-01 -0.10245031165E+00  0.12913786971E+00  0.19671637014E-01 0.  0.
         14    1    1    2    0    0  0.16462247276E-01 -0.16652899739E-01 -0.23507956534E-02  0.23534036953E-01  0.00000000000E+00 0.  1.
     999901    1    3    3    0    0 -0.18956457568E-01  0.92727393812E-01  0.10480110730E+00  0.89125809334E+00  0.88000000000E+00 0. -1.
        -11    1    4    4    0    0  0.94917717056E-02 -0.36693314596E-01 -0.41213360023E-01  0.55993707070E-01  0.51100000000E-03 0. -1.
         11    1    4    4    0    0 -0.69975614134E-02 -0.39381179478E-01 -0.61236951626E-01  0.73144162640E-01  0.51100000000E-03 0.  1.
</event>
<event>
 8    1  0.1166736E+005  0.1043930E+01  0.7957747E-01            NaN
         13   -1    0    0    0    0  0.00000000000E+00  0.00000000000E+00  0.74505805969E-08  0.10566000000E+00  0.10566000000E+00 0. -1.
     999900   -1    0    0    0    0 -0.00000000000E+00 -0.00000000000E+00 -0.74505805969E-08  0.93827000000E+00  0.93827000000E+00 0. -1.
     999902    2    1    2    0    0  0.14889064207E-01  0.21657661026E-02  0.18221124162E-01  0.10202998468E+01  0.10200261728E+01 0.  0.
     999903    2    3    3    0    0  0.87768603684E-01 -0.43335618913E-01 -0.83747015200E-01  0.13025529465E+00  0.19276295580E-01 0.  0.
         14    1    1    2    0    0 -0.14889064207E-01 -0.21657661026E-02 -0.18221124162E-01  0.23630153226E-01  0.00000000000E+00 0.  1.
     999901    1    3    3    0    0 -0.72879539477E-01  0.45501385016E-01  0.10196813936E+00  0.89004455212E+00  0.88000000000E+00 0.  1.
        -11    1    4    4    0    0  0.14264771317E-01 -0.15730178387E-01 -0.17318032297E-01  0.27406159462E-01  0.51100000000E-03 0. -1.
         11    1    4    4    0    0  0.73503832367E-01 -0.27605440527E-01 -0.66428982903E-01  0.10284913519E+00  0.51100000000E-03 0.  1.
</event>
<event>
 8    1  0.1166736E+005  0.1043930E+01  0.7957747E-01            NaN
         13   -1    0    0    0    0  0.00000000000E+00  0.00000000000E+00  0.74505805969E-08  0.10566000000E+00  0.10566000000E+00 0.  1.
     999900   -1    0    0    0    0 -0.00000000000E+00 -0.00000000000E+00 -0.74505805969E-08  0.93827000000E+00  0.93827000000E+00 0.  1.
     999902    2    1    2    0    0  0.18507711756E-01  0.19479433556E-03 -0.13517401682E-01  0.10210107180E+01  0.10207534437E+01 0.  0.
     999903    2    3    3    0    0  0.92334907431E-01 -0.43578380944E-01 -0.84377231350E-01  0.13400019881E+00  0.20291024956E-01 0.  0.
         14    1    1    2    0    0 -0.18507711756E-01 -0.19479433556E-03  0.13517401682E-01  0.22919282002E-01  0.00000000000E+00 0. -1.
     999901    1    3    3    0    0 -0.73827195676E-01  0.43773175280E-01  0.70859829669E-01  0.88701051919E+00  0.88000000000E+00 0. -1.
        -11    1    4    4    0    0  0.65358824345E-01 -0.37349655993E-01 -0.70016367153E-01  0.10280722500E+00  0.51100000000E-03 0.  1.
         11    1    4    4    0    0  0.26976083086E-01 -0.62287249511E-02 -0.14360864197E-01  0.31192973803E-01  0.51100000000E-03 0. -1.
</event>
<event>
 8    1  0.1166736E+005  0.1043930E+01  0.7957747E-01            NaN
         13   -1    0    0    0    0  0.00000000000E+00  0.00000000000E+00  0.74505805969E-08  0.10566000000E+00  0.10566000000E+00 0. -1.
     999900   -1    0    0    0    0 -0.00000000000E+00 -0.00000000000E+00 -0.74505805969E-08  0.93827000000E+00  0.93827000000E+00 0. -1.
     999902    2    1    2    0    0 -0.66545730945E-02 -0.22555517557E-01  0.98044562479E-02  0.10184513407E+01  0.10181325903E+01 0.  0.
     999903    2    3    3    0    0 -0.85544613106E-01  0.42791591139E-01 -0.82224335332E-01  0.12774197091E+00  0.20203185563E-01 0.  0.
         14    1    1    2    0    0  0.66545730945E-02  0.22555517557E-01 -0.98044562479E-02  0.25478659260E-01  0.00000000000E+00 0. -1.
     999901    1    3    3    0    0  0.78890040012E-01 -0.65347108697E-01  0.92028791579E-01  0.89070936983E+00  0.88000000000E+00 0.  1.
        -11    1    4    4    0    0 -0.31379727947E-01  0.89618852666E-02 -0.37831907549E-01  0.49965158494E-01  0.51100000000E-03 0. -1.
         11    1    4    4    0    0 -0.54164885159E-01  0.33829705873E-01 -0.44392427783E-01  0.77776812413E-01  0.51100000000E-03 0.  1.
</event>
<event>
 8    1  0.1166736E+005  0.1043930E+01  0.7957747E-01            NaN
         13   -1    0    0    0    0  0.00000000000E+00  0.00000000000E+00  0.74505805969E-08  0.10566000000E+00  0.10566000000E+00 0.  1.
     999900   -1    0    0    0    0 -0.00000000000E+00 -0.00000000000E+00 -0.74505805969E-08  0.93827000000E+00  0.93827000000E+00 0.  1.
     999902    2    1    2    0    0 -0.42669051781E-02 -0.16219610926E-01 -0.18849448397E-01  0.10186993844E+01  0.10183868871E+01 0.  0.
     999903    2    3    3    0    0 -0.16366430649E-01 -0.22340313117E-01  0.12264929827E+00  0.12729276741E+00  0.19840580285E-01 0.  0.
         14    1    1    2    0    0  0.42669051781E-02  0.16219610926E-01  0.18849448397E-01  0.25230615594E-01  0.00000000000E+00 0.  1.
     999901    1    3    3    0    0  0.12099525470E-01  0.61207021907E-02 -0.14149874667E+00  0.89140661699E+00  0.88000000000E+00 0.  1.
        -11    1    4    4    0    0 -0.41804254155E-02 -0.17277986108E-01  0.42623549496E-01  0.46184768628E-01  0.51100000000E-03 0.  1.
         11    1    4    4    0    0 -0.12186005233E-01 -0.50623270092E-02  0.80025748778E-01  0.81107998784E-01  0.51100000000E-03 0. -1.
</event>
<event>
 8    1  0.1166736E+005  0.1043930E+01  0.7957747E-01            NaN
         13   -1    0    0    0    0  0.00000000000E+00  0.00000000000E+00  0.74505805969E-08  0.10566000000E+00  0.10566000000E+00 0. -1.
     999900   -1    0    0    0    0 -0.00000000000E+00 -0.00000000000E+00 -0.74505805969E-08  0.93827000000E+00  0.93827000000E+00 0.  1.
     999902    2    1    2    0    0  0.67486500509E-02 -0.36383951091E-02  0.22523914649E-01  0.10201369563E+01  0.10198594515E+01 0.  0.
     999903    2    3    3    0    0  0.37635246958E-01 -0.10497344923E+00  0.68823169584E-01  0.13257490436E+00  0.20090787414E-01 0.  0.
         14    1    1    2    0    0 -0.67486500509E-02  0.36383951091E-02 -0.22523914649E-01  0.23793043681E-01  0.00000000000E+00 0.  1.
     999901    1    3    3    0    0 -0.30886596907E-01  0.10133505412E+00 -0.46299254936E-01  0.88756205195E+00  0.88000000000E+00 0.  1.
        -11    1    4    4    0    0  0.15498927746E-02 -0.28726861838E-01  0.14285084285E-01  0.32124126645E-01  0.51100000000E-03 0. -1.
         11    1    4    4    0    0  0.36085354183E-01 -0.76246587392E-01  0.54538085299E-01  0.10045077772E+00  0.51100000000E-03 0.  1.
</event>
<event>
 8    1  0.1166736E+005  0.1043930E+01  0.7957747E-01            NaN
         13   -1    0    0    0    0  0.00000000000E+00  0.00000000000E+00  0.74505805969E-08  0.10566000000E+00  0.10566000000E+00 0.  1.
     999900   -1    0    0    0    0 -0.00000000000E+00 -0.00000000000E+00 -0.74505805969E-08  0.93827000000E+00  0.93827000000E+00 0. -1.
     999902    2    1    2    0    0 -0.23868580444E-01  0.79116547441E-03 -0.19809048802E-03  0.10200474893E+01  0.10197678688E+01 0.  0.
     999903    2    3    3    0    0 -0.71179825581E-01  0.76806024189E-01  0.77735180609E-01  0.13207777849E+00  0.20881770626E-01 0.  0.
         14    1    1    2    0    0  0.23868580444E-01 -0.79116547441E-03  0.19809048802E-03  0.23882510652E-01  0.00000000000E+00 0.  1.
     999901    1    3    3    0    0  0.47311245137E-01 -0.76014858714E-01 -0.77933271097E-01  0.88796971086E+00  0.88000000000E+00 0. -1.
        -11    1    4    4    0    0 -0.43850590325E-01  0.37500195986E-01  0.52244010079E-01  0.77838529540E-01  0.51100000000E-03 0.  1.
         11    1    4    4    0    0 -0.27329235256E-01  0.39305828203E-01  0.25491170530E-01  0.54239248947E-01  0.51100000000E-03 0. -1.
</event>
<event>
 8    1  0.1166736E+005  0.1043930E+01  0.7957747E-01            NaN
         13   -1    0    0    0    0  0.00000000000E+00  0.00000000000E+00  0.74505805969E-08  0.10566000000E+00  0.10566000000E+00 0.  1.
     999900   -1    0    0    0    0 -0.00000000000E+00 -0.00000000000E+00 -0.74505805969E-08  0.93827000000E+00  0.93827000000E+00 0.  1.
     999902    2    1    2    0    0 -0.98899028574E-02 -0.21566638054E-01 -0.23613410302E-02  0.10200866364E+01  0.10198079426E+01 0.  0.
     999903    2    3    3    0    0 -0.78808920794E-01 -0.52008404414E-01  0.90253180081E-01  0.13202471195E+00  0.19213743095E-01 0.  0.
         14    1    1    2    0    0  0.98899028574E-02  0.21566638054E-01  0.23613410302E-02  0.23843363583E-01  0.00000000000E+00 0.  1.
     999901    1    3    3    0    0  0.68919017936E-01  0.30441766360E-01 -0.92614521111E-01  0.88806192447E+00  0.88000000000E+00 0. -1.
        -11    1    4    4    0    0 -0.57488943034E-01 -0.46561613282E-01  0.74214746893E-01  0.10479051570E+00  0.51100000000E-03 0.  1.
         11    1    4    4    0    0 -0.21319977759E-01 -0.54467911325E-02  0.16038433188E-01  0.27234196251E-01  0.51100000000E-03 0. -1.
</event>
<event>
 8    1  0.1166736E+005  0.1043930E+01  0.7957747E-01            NaN
         13   -1    0    0    0    0  0.00000000000E+00  0.00000000000E+00  0.74505805969E-08  0.10566000000E+00  0.10566000000E+00 0.  1.
     999900   -1    0    0    0    0 -0.00000000000E+00 -0.00000000000E+00 -0.74505805969E-08  0.93827000000E+00  0.93827000000E+00 0. -1.
     999902    2    1    2    0    0  0.14617654805E-01 -0.42034341902E-02 -0.10181125734E-01  0.10256269944E+01  0.10254636667E+01 0.  0.
     999903    2    3    3    0    0  0.80799568604E-01  0.10729219446E+00 -0.10578056307E-01  0.13612630391E+00  0.19449680245E-01 0.  0.
         14    1    1    2    0    0 -0.14617654805E-01  0.42034341902E-02  0.10181125734E-01  0.18303005551E-01  0.00000000000E+00 0.  1.
     999901    1    3    3    0    0 -0.66181913800E-01 -0.11149562865E+00  0.39693057227E-03  0.88950069054E+00  0.88000000000E+00 0.  1.
        -11    1    4    4    0    0  0.45886173035E-01  0.58826900075E-01 -0.15461216070E-01  0.76193538910E-01  0.51100000000E-03 0. -1.
         11    1    4    4    0    0  0.34913395570E-01  0.48465294383E-01  0.48831597635E-02  0.59932764997E-01  0.51100000000E-03 0.  1.
</event>
<event>
 8    1  0.1166736E+005  0.1043930E+01  0.7957747E-01            NaN
         13   -1    0    0    0    0  0.00000000000E+00  0.00000000000E+00  0.74505805969E-08  0.10566000000E+00  0.10566000000E+00 0.  1.
     999900   -1    0    0    0    0 -0.00000000000E+00 -0.00000000000E+00 -0.74505805969E-08  0.93827000000E+00  0.93827000000E+00 0.  1.
     999902    2    1    2    0    0 -0.12602419610E-01  0.17504821173E-01  0.10126440589E-01  0.10201017700E+01  0.10198234341E+01 0.  0.
     999903    2    3    3    0    0 -0.17933577170E-01 -0.13596444335E-03  0.12911216645E+00  0.13190290631E+00  0.20169122252E-01 0.  0.
         14    1    1    2    0    0  0.12602419610E-01 -0.17504821173E-01 -0.10126440589E-01  0.23828229966E-01  0.00000000000E+00 0. -1.
     999901    1    3    3    0    0  0.53311575604E-02  0.17640785617E-01 -0.11898572586E+00  0.88819886372E+00  0.88000000000E+00 0.  1.
        -11    1    4    4    0    0 -0.44043634313E-02  0.91678987306E-02  0.60532529250E-01  0.61383198049E-01  0.51100000000E-03 0.  1.
         11    1    4    4    0    0 -0.13529213739E-01 -0.93038631739E-02  0.68579637198E-01  0.70519708263E-01  0.51100000000E-03 0. -1.
</event>
<event>
 8    1  0.1166736E+005  0.1043930E+01  0.7957747E-01            NaN
         13   -1    0    0    0    0  0.00000000000E+00  0.00000000000E+00  0.74505805969E-08  0.10566000000E+00  0.10566000000E+00 0.  1.
     999900   -1    0    0    0    0 -0.00000000000E+00 -0.00000000000E+00 -0.74505805969E-08  0.93827000000E+00  0.93827000000E+00 0.  1.
     999902    2    1    2    0    0  0.27092071872E-02 -0.14571921543E-01 -0.16769791446E-01  0.10215490571E+01  0.10213038575E+01 0.  0.
     999903    2    3    3    0    0 -0.23319169257E-01  0.49749844605E-01 -0.11929528930E+00  0.13288362864E+00  0.20195594084E-01 0.  0.
         14    1    1    2    0    0 -0.27092071872E-02  0.14571921543E-01  0.16769791446E-01  0.22380942924E-01  0.00000000000E+00 0.  1.
     999901    1    3    3    0    0  0.26028376444E-01 -0.64321766148E-01  0.10252549785E+00  0.88866542843E+00  0.88000000000E+00 0. -1.
        -11    1    4    4    0    0 -0.47879157260E-02  0.69423129758E-02 -0.60064222677E-02  0.10366198720E-01  0.51100000000E-03 0. -1.
         11    1    4    4    0    0 -0.18531253531E-01  0.42807531629E-01 -0.11328886703E+00  0.12251742992E+00  0.51100000000E-03 0.  1.
</event>
<event>
 8    1  0.1166736E+005  0.1043930E+01  0.7957747E-01            NaN
         13   -1    0    0    0    0  0.00000000000E+00  0.00000000000E+00  0.74505805969E-08  0.10566000000E+00  0.10566000000E+00 0.  1.
     999900   -1    0    0    0    0 -0.00000000000E+00 -0.00000000000E+00 -0.74505805969E-08  0.93827000000E+00  0.93827000000E+00 0.  1.
     999902    2    1    2    0    0  0.78643504077E-02 -0.86512929511E-02  0.23298030800E-01  0.10178629496E+01  0.10175291117E+01 0.  0.
     999903    2    3    3    0    0  0.70223504006E-01 -0.57635730193E-01 -0.87070452468E-01  0.12743084033E+00  0.20103170516E-01 0.  0.
         14    1    1    2    0    0 -0.78643504077E-02  0.86512929511E-02 -0.23298030800E-01  0.26067050393E-01  0.00000000000E+00 0. -1.
     999901    1    3    3    0    0 -0.62359153599E-01  0.48984437242E-01  0.11036848327E+00  0.89043210928E+00  0.88000000000E+00 0. -1.
        -11    1    4    4    0    0  0.54274042038E-01 -0.34629581822E-01 -0.53447504263E-01  0.83676618056E-01  0.51100000000E-03 0.  1.
         11    1    4    4    0    0  0.15949461968E-01 -0.23006148372E-01 -0.33622948204E-01  0.43754222275E-01  0.51100000000E-03 0. -1.
</event>
<event>
 8    1  0.1166736E+005  0.1043930E+01  0.7957747E-01            NaN
         13   -1    0    0    0    0  0.00000000000E+00  0.00000000000E+00  0.74505805969E-08  0.10566000000E+00  0.10566000000E+00 0.  1.
     999900   -1    0    0    0    0 -0.00000000000E+00 -0.00000000000E+00 -0.74505805969E-08  0.93827000000E+00  0.93827000000E+00 0.  1.
     999902    2    1    2    0    0  0.61497537578E-02  0.12707729879E-01  0.17799346082E-01  0.10212116684E+01  0.10209589360E+01 0.  0.
     999903    2    3    3    0    0  0.76103576486E-01  0.34691839185E-01  0.10287989948E+00  0.13407270581E+00  0.19898207567E-01 0.  0.
         14    1    1    2    0    0 -0.61497537578E-02 -0.12707729879E-01 -0.17799346082E-01  0.22718331604E-01  0.00000000000E+00 0.  1.
     999901    1    3    3    0    0 -0.69953822728E-01 -0.21984109307E-01 -0.85080553402E-01  0.88713896259E+00  0.88000000000E+00 0.  1.
        -11    1    4    4    0    0  0.40676607426E-01  0.12686267536E-01  0.65047582765E-01  0.77762310410E-01  0.51100000000E-03 0. -1.
         11    1    4    4    0    0  0.35426969060E-01  0.22005571650E-01  0.37832316719E-01  0.56310395397E-01  0.51100000000E-03 0.  1.
</event>
<event>
 8    1  0.1166736E+005  0.1043930E+01  0.7957747E-01            NaN
         13   -1    0    0    0    0  0.00000000000E+00  0.00000000000E+00  0.74505805969E-08  0.10566000000E+00  0.10566000000E+00 0. -1.
     999900   -1    0    0    0    0 -0.00000000000E+00 -0.00000000000E+00 -0.74505805969E-08  0.93827000000E+00  0.93827000000E+00 0. -1.
     999902    2    1    2    0    0  0.10572654999E-01  0.13403696708E-01 -0.17983884729E-01  0.10191336247E+01  0.10188319217E+01 0.  0.
     999903    2    3    3    0    0  0.11206661943E+00 -0.21988031243E-01  0.57422718574E-01  0.12939222683E+00  0.20064372548E-01 0.  0.
         14    1    1    2    0    0 -0.10572654999E-01 -0.13403696708E-01  0.17983884729E-01  0.24796375323E-01  0.00000000000E+00 0. -1.
     999901    1    3    3    0    0 -0.10149396444E+00  0.35391727951E-01 -0.75406603304E-01  0.88974139785E+00  0.88000000000E+00 0. -1.
        -11    1    4    4    0    0  0.64690943179E-01 -0.21741163477E-01  0.29103579811E-01  0.74194850210E-01  0.51100000000E-03 0.  1.
         11    1    4    4    0    0  0.47375676255E-01 -0.24686776515E-03  0.28319138763E-01  0.55197376619E-01  0.51100000000E-03 0. -1.
</event>
<event>
 8    1  0.1166736E+005  0.1043930E+01  0.7957747E-01            NaN
         13   -1    0    0    0    0  0.00000000000E+00  0.00000000000E+00  0.74505805969E-08  0.10566000000E+00  0.10566000000E+00 0.  1.
     999900   -1    0    0    0    0 -0.00000000000E+00 -0.00000000000E+00 -0.74505805969E-08  0.93827000000E+00  0.93827000000E+00 0. -1.
     999902    2    1    2    0    0 -0.13931003983E-01  0.96697167864E-02  0.16835361412E-01  0.10200342747E+01  0.10197543409E+01 0.  0.
     999903    2    3    3    0    0  0.55301008210E-01  0.10937794753E+00 -0.38421793179E-01  0.12998475026E+00  0.19951546115E-01 0.  0.
         14    1    1    2    0    0  0.13931003983E-01 -0.96697167864E-02 -0.16835361412E-01  0.23895725320E-01  0.00000000000E+00 0.  1.
     999901    1    3    3    0    0 -0.69232012194E-01 -0.99708230748E-01  0.55257154591E-01  0.89004952442E+00  0.88000000000E+00 0. -1.
        -11    1    4    4    0    0  0.16747589630E-01  0.16575703450E-01 -0.95098381030E-02  0.25415228605E-01  0.51100000000E-03 0.  1.
         11    1    4    4    0    0  0.38553418581E-01  0.92802244084E-01 -0.28911955076E-01  0.10456952165E+00  0.51100000000E-03 0. -1.
</event>
<event>
 8    1  0.1166736E+005  0.1043930E+01  0.7957747E-01            NaN
         13   -1    0    0    0    0  0.00000000000E+00  0.00000000000E+00  0.74505805969E-08  0.10566000000E+00  0.10566000000E+00 0. -1.
     999900   -1    0    0    0    0 -0.00000000000E+00 -0.00000000000E+00 -0.74505805969E-08  0.93827000000E+00  0.93827000000E+00 0. -1.
     999902    2    1    2    0    0  0.11467498854E-01 -0.17041607702E-01 -0.11347783731E-01  0.10204631698E+01  0.10201933095E+01 0.  0.
     999903    2    3    3    0    0 -0.37201467841E-01 -0.10376748323E+00  0.68382597079E-01  0.13127984821E+00  0.20163808625E-01 0.  0.
         14    1    1    2    0    0 -0.11467498854E-01  0.17041607702E-01  0.11347783731E-01  0.23466830179E-01  0.00000000000E+00 0. -1.
     999901    1    3    3    0    0  0.48668966695E-01  0.86725875525E-01 -0.79730380810E-01  0.88918332161E+00  0.88000000000E+00 0. -1.
        -11    1    4    4    0    0 -0.19138772248E-01 -0.44795457256E-01  0.19082074897E-01  0.52319330054E-01  0.51100000000E-03 0. -1.
         11    1    4    4    0    0 -0.18062695593E-01 -0.58972025972E-01  0.49300522182E-01  0.78960518158E-01  0.51100000000E-03 0.  1.
</event>
<event>
 8    1  0.1166736E+005  0.1043930E+01  0.7957747E-01            NaN
         13   -1    0    0    0    0  0.00000000000E+00  0.00000000000E+00  0.74505805969E-08  0.10566000000E+00  0.10566000000E+00 0. -1.
     999900   -1    0    0    0    0 -0.00000000000E+00 -0.00000000000E+00 -0.74505805969E-08  0.93827000000E+00  0.93827000000E+00 0. -1.
     999902    2    1    2    0    0 -0.97663705434E-02 -0.89643322252E-02  0.22621444780E-01  0.10177103316E+01  0.10173725218E+01 0.  0.
     999903    2    3    3    0    0  0.95566960878E-01 -0.42057253993E-01  0.73508235624E-01  0.12935245460E+00  0.20657690643E-01 0.  0.
         14    1    1    2    0    0  0.97663705434E-02  0.89643322252E-02 -0.22621444780E-01  0.26219668377E-01  0.00000000000E+00 0.  1.
     999901    1    3    3    0    0 -0.10533333142E+00  0.33092921767E-01 -0.50886790844E-01  0.88835787702E+00  0.88000000000E+00 0. -1.
        -11    1    4    4    0    0  0.89236521833E-01 -0.34675440761E-01  0.61077850435E-01  0.11356191243E+00  0.51100000000E-03 0. -1.
         11    1    4    4    0    0  0.63304390448E-02 -0.73818132312E-02  0.12430385189E-01  0.15790542171E-01  0.51100000000E-03 0.  1.
</event>
<event>
 8    1  0.1166736E+005  0.1043930E+01  0.7957747E-01            NaN
         13   -1    0    0    0    0  0.00000000000E+00  0.00000000000E+00  0.74505805969E-08  0.10566000000E+00  0.10566000000E+00 0. -1.
     999900   -1    0    0    0    0 -0.00000000000E+00 -0.00000000000E+00 -0.74505805969E-08  0.93827000000E+00  0.93827000000E+00 0.  1.
     999902    2    1    2    0    0  0.25739823478E-02 -0.22710884035E-01  0.12459435234E-01  0.10178983430E+01  0.10175654227E+01 0.  0.
     999903    2    3    3    0    0 -0.96721272197E-02 -0.76238925848E-01 -0.10137885599E+00  0.12886832384E+00  0.20577866465E-01 0.  0.
         14    1    1    2    0    0 -0.25739823478E-02  0.22710884035E-01 -0.12459435234E-01  0.26031656980E-01  0.00000000000E+00 0. -1.
     999901    1    3    3    0    0  0.12246109567E-01  0.53528041813E-01  0.11383829122E+00  0.88903001918E+00  0.88000000000E+00 0. -1.
        -11    1    4    4    0    0  0.45882852218E-02 -0.10325004578E-01 -0.88037059845E-02  0.14332635517E-01  0.51100000000E-03 0. -1.
         11    1    4    4    0    0 -0.14260412441E-01 -0.65913921270E-01 -0.92575150002E-01  0.11453568832E+00  0.51100000000E-03 0.  1.
</event>
<event>
 8    1  0.1166736E+005  0.1043930E+01  0.7957747E-01            NaN
         13   -1    0    0    0    0  0.00000000000E+00  0.00000000000E+00  0.74505805969E-08  0.10566000000E+00  0.10566000000E+00 0. -1.
     999900   -1    0    0    0    0 -0.00000000000E+00 -0.00000000000E+00 -0.74505805969E-08  0.93827000000E+00  0.93827000000E+00 0.  1.
     999902    2    1    2    0    0 -0.71604301451E-02 -0.18238050156E-01  0.12854160935E-01  0.10204965264E+01  0.10202274416E+01 0.  0.
     999903    2    3    3    0    0 -0.12349680261E+00  0.37935866791E-01  0.11383111090E-02  0.13098715506E+00  0.21581213942E-01 0.  0.
         14    1    1    2    0    0  0.71604301451E-02  0.18238050156E-01 -0.12854160935E-01  0.23433473637E-01  0.00000000000E+00 0.  1.
     999901    1    3    3    0    0  0.11633637246E+00 -0.56173916946E-01  0.11715849826E-01  0.88950937130E+00  0.88000000000E+00 0. -1.
        -11    1    4    4    0    0 -0.10168042222E+00  0.39345693087E-01 -0.82025255170E-03  0.10903176492E+00  0.51100000000E-03 0.  1.
         11    1    4    4    0    0 -0.21816380388E-01 -0.14098262962E-02  0.19585636607E-02  0.21955390137E-01  0.51100000000E-03 0. -1.
</event>
<event>
 8    1  0.1166736E+005  0.1043930E+01  0.7957747E-01            NaN
         13   -1    0    0    0    0  0.00000000000E+00  0.00000000000E+00  0.74505805969E-08  0.10566000000E+00  0.10566000000E+00 0. -1.
     999900   -1    0    0    0    0 -0.00000000000E+00 -0.00000000000E+00 -0.74505805969E-08  0.93827000000E+00  0.93827000000E+00 0.  1.
     999902    2    1    2    0    0  0.20356640888E-02  0.44996133227E-02 -0.23287444193E-01  0.10201246328E+01  0.10198468370E+01 0.  0.
     999903    2    3    3    0    0  0.39972897449E-01  0.10295638510E+00  0.63771900493E-01  0.12955610708E+00  0.22805258732E-01 0.  0.
         14    1    1    2    0    0 -0.20356640888E-02 -0.44996133227E-02  0.23287444193E-01  0.23805367155E-01  0.00000000000E+00 0. -1.
     999901    1    3    3    0    0 -0.37937233360E-01 -0.98456771780E-01 -0.87059344686E-01  0.89056852576E+00  0.88000000000E+00 0.  1.
        -11    1    4    4    0    0  0.28542222401E-01  0.44705902313E-01  0.35320892623E-01  0.63726781952E-01  0.51100000000E-03 0. -1.
         11    1    4    4    0    0  0.11430675048E-01  0.58250482789E-01  0.28451007870E-01  0.65829325130E-01  0.51100000000E-03 0.  1.
</event>
<event>
 8    1  0.1166736E+005  0.1043930E+01  0.7957747E-01            NaN
         13   -1    0    0    0    0  0.00000000000E+00  0.00000000000E+00  0.74505805969E-08  0.10566000000E+00  0.10566000000E+00 0. -1.
     999900   -1    0    0    0    0 -0.00000000000E+00 -0.00000000000E+00 -0.74505805969E-08  0.93827000000E+00  0.93827000000E+00 0. -1.
     999902    2    1    2    0    0  0.39836297575E-02  0.23888448783E-01  0.14685306931E-02  0.10196671916E+01  0.10193784860E+01 0.  0.
     999903    2    3    3    0    0 -0.11755459843E+00  0.40810874588E-01  0.34304260574E-01  0.13054622421E+00  0.19517255611E-01 0.  0.
         14    1    1    2    0    0 -0.39836297575E-02 -0.23888448783E-01 -0.14685306931E-02  0.24262808446E-01  0.00000000000E+00 0. -1.
     999901    1    3    3    0    0  0.12153822819E+00 -0.16922425806E-01 -0.32835729881E-01  0.88912096734E+00  0.88000000000E+00 0. -1.
        -11    1    4    4    0    0 -0.22602957247E-01  0.33980943807E-02 -0.46076729394E-04  0.22862720000E-01  0.51100000000E-03 0.  1.
         11    1    4    4    0    0 -0.94951641183E-01  0.37412780207E-01  0.34350337303E-01  0.10768350422E+00  0.51100000000E-03 0. -1.
</event>
<event>
 8    1  0.1166736E+005  0.1043930E+01  0.7957747E-01            NaN
         13   -1    0    0    0    0  0.00000000000E+00  0.00000000000E+00  0.74505805969E-08  0.10566000000E+00  0.10566000000E+00 0.  1.
     999900   -1    0    0    0    0 -0.00000000000E+00 -0.00000000000E+00 -0.74505805969E-08  0.93827000000E+00  0.93827000000E+00 0.  1.
     999902    2    1    2    0    0 -0.10195653075E-01  0.10265183761E-01 -0.19129039769E-01  0.10199457239E+01  0.10196636868E+01 0.  0.
     999903    2    3    3    0    0 -0.60679026816E-01 -0.10905687937E+00 -0.32220399238E-01  0.13036283876E+00  0.19518411027E-01 0.  0.
         14    1    1    2    0    0  0.10195653075E-01 -0.10265183761E-01  0.19129039769E-01  0.23984276136E-01  0.00000000000E+00 0.  1.
     999901    1    3    3    0    0  0.50483373741E-01  0.11932206313E+00  0.13091359468E-01  0.88958288510E+00  0.88000000000E+00 0. -1.
        -11    1    4    4    0    0 -0.38833491296E-01 -0.49772465328E-01 -0.16581784727E-01  0.65272927442E-01  0.51100000000E-03 0.  1.
         11    1    4    4    0    0 -0.21845535520E-01 -0.59284414045E-01 -0.15638614511E-01  0.65089911320E-01  0.51100000000E-03 0. -1.
</event>
<event>
 8    1  0.1173927E+005  0.1043930E+01  0.7957747E-01            NaN
         13   -1    0    0    0    0  0.00000000000E+00  0.00000000000E+00  0.74505805969E-08  0.10566000000E+00  0.10566000000E+00 0. -1.
     999900   -1    0    0    0    0 -0.00000000000E+00 -0.00000000000E+00 -0.74505805969E-08  0.93827000000E+00  0.93827000000E+00 0.  1.
     999902    2    1    2    0    0  0.42366527165E-02 -0.38122757465E-02 -0.21494529787E-01  0.10216927006E+01  0.10214506728E+01 0.  0.
     999903    2    3    3    0    0 -0.12932380299E-01 -0.89450275256E-01  0.91766128888E-01  0.13014538306E+00  0.18660121050E-01 0.  0.
         14    1    1    2    0    0 -0.42366527165E-02  0.38122757465E-02  0.21494529787E-01  0.22237299373E-01  0.00000000000E+00 0. -1.
     999901    1    3    3    0    0  0.17169033015E-01  0.85637999510E-01 -0.11326065868E+00  0.89154731757E+00  0.88000000000E+00 0.  1.
        -11    1    4    4    0    0 -0.13602973315E-01 -0.38021629447E-01  0.46900599423E-01  0.61891942416E-01  0.51100000000E-03 0.  1.
         11    1    4    4    0    0  0.67059301634E-03 -0.51428645810E-01  0.44865529465E-01  0.68253440646E-01  0.51100000000E-03 0. -1.
</event>
<event>
 8    1  0.1166736E+005  0.1043930E+01  0.7957747E-01            NaN
         13   -1    0    0    0    0  0.00000000000E+00  0.00000000000E+00  0.74505805969E-08  0.10566000000E+00  0.10566000000E+00 0.  1.
     999900   -1    0    0    0    0 -0.00000000000E+00 -0.00000000000E+00 -0.74505805969E-08  0.93827000000E+00  0.93827000000E+00 0. -1.
     999902    2    1    2    0    0  0.46809336001E-02  0.18829489566E-01 -0.11583067100E-02  0.10244928579E+01  0.10243084562E+01 0.  0.
     999903    2    3    3    0    0 -0.10976608908E+00  0.38074350433E-01 -0.64856177815E-01  0.13459066981E+00  0.20250287052E-01 0.  0.
         14    1    1    2    0    0 -0.46809336001E-02 -0.18829489566E-01  0.11583067100E-02  0.19437142052E-01  0.00000000000E+00 0. -1.
     999901    1    3    3    0    0  0.11444702268E+00 -0.19244860867E-01  0.63697871105E-01  0.88990218814E+00  0.88000000000E+00 0. -1.
        -11    1    4    4    0    0 -0.47048741975E-01  0.68103846107E-02 -0.21445342143E-01  0.52154858648E-01  0.51100000000E-03 0.  1.
         11    1    4    4    0    0 -0.62717347108E-01  0.31263965822E-01 -0.43410835672E-01  0.82435811162E-01  0.51100000000E-03 0. -1.
</event>
<event>
 8    1  0.1166736E+005  0.1043930E+01  0.7957747E-01            NaN
         13   -1    0    0    0    0  0.00000000000E+00  0.00000000000E+00  0.74505805969E-08  0.10566000000E+00  0.10566000000E+00 0. -1.
     999900   -1    0    0    0    0 -0.00000000000E+00 -0.00000000000E+00 -0.74505805969E-08  0.93827000000E+00  0.93827000000E+00 0. -1.
     999902    2    1    2    0    0 -0.87002532381E-02 -0.17805206251E-01  0.13847480145E-01  0.10197541343E+01  0.10194675188E+01 0.  0.
     999903    2    3    3    0    0  0.39377071244E-01 -0.51251140525E-01  0.11358351536E+00  0.13218591925E+00  0.19866281533E-01 0.  0.
         14    1    1    2    0    0  0.87002532381E-02  0.17805206251E-01 -0.13847480145E-01  0.24175865702E-01  0.00000000000E+00 0.  1.
     999901    1    3    3    0    0 -0.48077324483E-01  0.33445934274E-01 -0.99736035210E-01  0.88756821505E+00  0.88000000000E+00 0. -1.
        -11    1    4    4    0    0  0.22368108804E-01 -0.14459883735E-01  0.37828658042E-01  0.46267580652E-01  0.51100000000E-03 0.  1.
         11    1    4    4    0    0  0.17008962440E-01 -0.36791256791E-01  0.75754857314E-01  0.85918338596E-01  0.51100000000E-03 0. -1.
</event>
<event>
 8    1  0.1166736E+005  0.1043930E+01  0.7957747E-01            NaN
         13   -1    0    0    0    0  0.00000000000E+00  0.00000000000E+00  0.74505805969E-08  0.10566000000E+00  0.10566000000E+00 0.  1.
     999900   -1    0    0    0    0 -0.00000000000E+00 -0.00000000000E+00 -0.74505805969E-08  0.93827000000E+00  0.93827000000E+00 0. -1.
     999902    2    1    2    0    0  0.25153733543E-02 -0.20639395329E-01 -0.11981288694E-01  0.10199328539E+01  0.10196505104E+01 0.  0.
     999903    2    3    3    0    0  0.49224592283E-01 -0.11484950761E+00  0.37985017348E-01  0.13226516374E+00  0.20922287485E-01 0.  0.
         14    1    1    2    0    0 -0.25153733543E-02  0.20639395329E-01  0.11981288694E-01  0.23997146110E-01  0.00000000000E+00 0.  1.
     999901    1    3    3    0    0 -0.46709218929E-01  0.94210112281E-01 -0.49966306041E-01  0.88766769015E+00  0.88000000000E+00 0.  1.
        -11    1    4    4    0    0  0.35344463773E-01 -0.56128216800E-01  0.18708789308E-01  0.68919429474E-01  0.51100000000E-03 0. -1.
         11    1    4    4    0    0  0.13880128510E-01 -0.58721290810E-01  0.19276228039E-01  0.63345734271E-01  0.51100000000E-03 0.  1.
</event>
<event>
 8    1  0.1166736E+005  0.1043930E+01  0.7957747E-01            NaN
         13   -1    0    0    0    0  0.00000000000E+00  0.00000000000E+00  0.74505805969E-08  0.10566000000E+00  0.10566000000E+00 0. -1.
     999900   -1    0    0    0    0 -0.00000000000E+00 -0.00000000000E+00 -0.74505805969E-08  0.93827000000E+00  0.93827000000E+00 0.  1.
     999902    2    1    2    0    0  0.13527680742E-01  0.10345477371E-01  0.14371455332E-01  0.10216462441E+01  0.10214031928E+01 0.  0.
     999903    2    3    3    0    0 -0.11583304579E+00 -0.51471391100E-01  0.20759930757E-01  0.13002057410E+00  0.20193473341E-01 0.  0.
         14    1    1    2    0    0 -0.13527680742E-01 -0.10345477371E-01 -0.14371455332E-01  0.22283755892E-01  0.00000000000E+00 0.  1.
     999901    1    3    3    0    0  0.12936072653E+00  0.61816868472E-01 -0.63884754248E-02  0.89162567001E+00  0.88000000000E+00 0.  1.
        -11    1    4    4    0    0 -0.69088585237E-01 -0.34590604375E-01  0.32828106514E-02  0.77335505997E-01  0.51100000000E-03 0.  1.
         11    1    4    4    0    0 -0.46744460554E-01 -0.16880786725E-01  0.17477120105E-01  0.52685068104E-01  0.51100000000E-03 0. -1.
</event>
<event>
 8    1  0.1166736E+005  0.1043930E+01  0.7957747E-01            NaN
         13   -1    0    0    0    0  0.00000000000E+00  0.00000000000E+00  0.74505805969E-08  0.10566000000E+00  0.10566000000E+00 0. -1.
     999900   -1    0    0    0    0 -0.00000000000E+00 -0.00000000000E+00 -0.74505805969E-08  0.93827000000E+00  0.93827000000E+00 0. -1.
     999902    2    1    2    0    0 -0.81265280891E-02 -0.13563569080E-01 -0.75030410277E-02  0.10264283861E+01  0.10262791654E+01 0.  0.
     999903    2    3    3    0    0 -0.11602309634E+00  0.56011449489E-01 -0.40689802643E-01  0.13649371781E+00  0.19396742125E-01 0.  0.
         14    1    1    2    0    0  0.81265280891E-02  0.13563569080E-01  0.75030410277E-02  0.17501613915E-01  0.00000000000E+00 0.  1.
     999901    1    3    3    0    0  0.10789656825E+00 -0.69575018569E-01  0.33186761615E-01  0.88993466827E+00  0.88000000000E+00 0.  1.
        -11    1    4    4    0    0 -0.49608836879E-01  0.33937595910E-01 -0.15124986176E-01  0.61982444615E-01  0.51100000000E-03 0.  1.
         11    1    4    4    0    0 -0.66414259459E-01  0.22073853580E-01 -0.25564816467E-01  0.74511273197E-01  0.51100000000E-03 0. -1.
</event>
<event>
 8    1  0.1166736E+005  0.1043930E+01  0.7957747E-01            NaN
         13   -1    0    0    0    0  0.00000000000E+00  0.00000000000E+00  0.74505805969E-08  0.10566000000E+00  0.10566000000E+00 0.  1.
     999900   -1    0    0    0    0 -0.00000000000E+00 -0.00000000000E+00 -0.74505805969E-08  0.93827000000E+00  0.93827000000E+00 0. -1.
     999902    2    1    2    0    0  0.13818378787E-01  0.18784316868E-01 -0.41082354885E-02  0.10202514073E+01  0.10199765970E+01 0.  0.
     999903    2    3    3    0    0 -0.72327429267E-01  0.98404119864E-01  0.43808910116E-01  0.13117522042E+00  0.19315538185E-01 0.  0.
         14    1    1    2    0    0 -0.13818378787E-01 -0.18784316868E-01  0.41082354885E-02  0.23678592680E-01  0.00000000000E+00 0.  1.
     999901    1    3    3    0    0  0.86145808054E-01 -0.79619802996E-01 -0.47917145605E-01  0.88907618690E+00  0.88000000000E+00 0. -1.
        -11    1    4    4    0    0 -0.29822892309E-01  0.53793304874E-01  0.15908956439E-01  0.63533302849E-01  0.51100000000E-03 0. -1.
         11    1    4    4    0    0 -0.42504536958E-01  0.44610814989E-01  0.27899953678E-01  0.67641917568E-01  0.51100000000E-03 0.  1.
</event>
<event>
 8    1  0.1166736E+005  0.1043930E+01  0.7957747E-01            NaN
         13   -1    0    0    0    0  0.00000000000E+00  0.00000000000E+00  0.74505805969E-08  0.10566000000E+00  0.10566000000E+00 0. -1.
     999900   -1    0    0    0    0 -0.00000000000E+00 -0.00000000000E+00 -0.74505805969E-08  0.93827000000E+00  0.93827000000E+00 0. -1.
     999902    2    1    2    0    0 -0.20902475978E-01  0.76416199697E-02  0.13917321311E-01  0.10176811964E+01  0.10173426256E+01 0.  0.
     999903    2    3    3    0    0  0.55778370540E-01  0.69299584204E-01  0.90911740842E-01  0.12885624321E+00  0.20623476934E-01 0.  0.
         14    1    1    2    0    0  0.20902475978E-01 -0.76416199697E-02 -0.13917321311E-01  0.26248803597E-01  0.00000000000E+00 0. -1.
     999901    1    3    3    0    0 -0.76680846518E-01 -0.61657964234E-01 -0.76994419531E-01  0.88882495319E+00  0.88000000000E+00 0. -1.
        -11    1    4    4    0    0  0.31835553724E-01  0.53851274388E-01  0.57857305999E-01  0.85212623552E-01  0.51100000000E-03 0.  1.
         11    1    4    4    0    0  0.23942816815E-01  0.15448309816E-01  0.33054434844E-01  0.43643619660E-01  0.51100000000E-03 0. -1.
</event>
<event>
 8    1  0.1166736E+005  0.1043930E+01  0.7957747E-01            NaN
         13   -1    0    0    0    0  0.00000000000E+00  0.00000000000E+00  0.74505805969E-08  0.10566000000E+00  0.10566000000E+00 0.  1.
     999900   -1    0    0    0    0 -0.00000000000E+00 -0.00000000000E+00 -0.74505805969E-08  0.93827000000E+00  0.93827000000E+00 0. -1.
     999902    2    1    2    0    0  0.53302791559E-02  0.98291802176E-02  0.35931609082E-02  0.10321854070E+01  0.10321185876E+01 0.  0.
     999903    2    3    3    0    0  0.82271947473E-01 -0.17209058098E-01  0.11240035622E+00  0.14174164548E+00  0.19799721352E-01 0.  0.
         14    1    1    2    0    0 -0.53302791559E-02 -0.98291802176E-02 -0.35931609082E-02  0.11744593009E-01  0.00000000000E+00 0.  1.
     999901    1    3    3    0    0 -0.76941668317E-01  0.27038238316E-01 -0.10880719531E+00  0.89044376151E+00  0.88000000000E+00 0. -1.
        -11    1    4    4    0    0  0.37624876917E-01 -0.14805063167E-01  0.65224840677E-01  0.76742180193E-01  0.51100000000E-03 0.  1.
         11    1    4    4    0    0  0.44647070556E-01 -0.24039949311E-02  0.47175515539E-01  0.64999465292E-01  0.51100000000E-03 0. -1.
</event>
<event>
 8    1  0.1166736E+005  0.1043930E+01  0.7957747E-01            NaN
         13   -1    0    0    0    0  0.00000000000E+00  0.00000000000E+00  0.74505805969E-08  0.10566000000E+00  0.10566000000E+00 0. -1.
     999900   -1    0    0    0    0 -0.00000000000E+00 -0.00000000000E+00 -0.74505805969E-08  0.93827000000E+00  0.93827000000E+00 0.  1.
     999902    2    1    2    0    0  0.22648752719E-01  0.97814122973E-02 -0.67464967330E-02  0.10183535021E+01  0.10180322677E+01 0.  0.
     999903    2    3    3    0    0 -0.10175084192E+00  0.12956551561E-01  0.70669389078E-01  0.12623324114E+00  0.20483226201E-01 0.  0.
         14    1    1    2    0    0 -0.22648752719E-01 -0.97814122973E-02  0.67464967330E-02  0.25576497892E-01  0.00000000000E+00 0.  1.
     999901    1    3    3    0    0  0.12439959464E+00 -0.31751392642E-02 -0.77415885811E-01  0.89212026097E+00  0.88000000000E+00 0.  1.
        -11    1    4    4    0    0 -0.56736605042E-01 -0.16400948240E-02  0.32304146239E-01  0.65311187770E-01  0.51100000000E-03 0.  1.
         11    1    4    4    0    0 -0.45014236879E-01  0.14596646385E-01  0.38365242838E-01  0.60922053368E-01  0.51100000000E-03 0. -1.
</event>
<event>
 8    1  0.1166736E+005  0.1043930E+01  0.7957747E-01            NaN
         13   -1    0    0    0    0  0.00000000000E+00  0.00000000000E+00  0.74505805969E-08  0.10566000000E+00  0.10566000000E+00 0. -1.
     999900   -1    0    0    0    0 -0.00000000000E+00 -0.00000000000E+00 -0.74505805969E-08  0.93827000000E+00  0.93827000000E+00 0.  1.
     999902    2    1    2    0    0 -0.19504400074E-01 -0.92847695266E-02 -0.11718350209E-01  0.10193546404E+01  0.10190583568E+01 0.  0.
     999903    2    3    3    0    0  0.75130275242E-01  0.69780454050E-01  0.71800887829E-01  0.12683993774E+00  0.20472720589E-01 0.  0.
         14    1    1    2    0    0  0.19504400074E-01  0.92847695266E-02  0.11718350209E-01  0.24575359592E-01  0.00000000000E+00 0. -1.
     999901    1    3    3    0    0 -0.94634675316E-01 -0.79065223577E-01 -0.83519238038E-01  0.89251470267E+00  0.88000000000E+00 0. -1.
        -11    1    4    4    0    0  0.67509512642E-01  0.52783365392E-01  0.62102379065E-01  0.10583281422E+00  0.51100000000E-03 0. -1.
         11    1    4    4    0    0  0.76207625993E-02  0.16997088658E-01  0.96985087636E-02  0.21007123522E-01  0.51100000000E-03 0.  1.
</event>
<event>
 8    1  0.1166736E+005  0.1043930E+01  0.7957747E-01            NaN
         13   -1    0    0    0    0  0.00000000000E+00  0.00000000000E+00  0.74505805969E-08  0.10566000000E+00  0.10566000000E+00 0. -1.
     999900   -1    0    0    0    0 -0.00000000000E+00 -0.00000000000E+00 -0.74505805969E-08  0.93827000000E+00  0.93827000000E+00 0.  1.
     999902    2    1    2    0    0 -0.20589726259E-01 -0.69865561029E-02 -0.81570246338E-02  0.10207074712E+01  0.10204432644E+01 0.  0.
     999903    2    3    3    0    0  0.10405431042E+00  0.24184624674E-01  0.67820292725E-01  0.12813796065E+00  0.20187849449E-01 0.  0.
         14    1    1    2    0    0  0.20589726259E-01  0.69865561029E-02  0.81570246338E-02  0.23222528813E-01  0.00000000000E+00 0. -1.
     999901    1    3    3    0    0 -0.12464403668E+00 -0.31171180777E-01 -0.75977317359E-01  0.89256951054E+00  0.88000000000E+00 0.  1.
        -11    1    4    4    0    0  0.42978920815E-01  0.30064533208E-03  0.23533586111E-01  0.49003763307E-01  0.51100000000E-03 0. -1.
         11    1    4    4    0    0  0.61075389608E-01  0.23883979342E-01  0.44286706614E-01  0.79134197340E-01  0.51100000000E-03 0.  1.
</event>
<event>
 8    1  0.1166736E+005  0.1043930E+01  0.7957747E-01            NaN
         13   -1    0    0    0    0  0.00000000000E+00  0.00000000000E+00  0.74505805969E-08  0.10566000000E+00  0.10566000000E+00 0. -1.
     999900   -1    0    0    0    0 -0.00000000000E+00 -0.00000000000E+00 -0.74505805969E-08  0.93827000000E+00  0.93827000000E+00 0. -1.
     999902    2    1    2    0    0 -0.10815108444E-01  0.17075056244E-01  0.16509642215E-01  0.10178322529E+01  0.10174976180E+01 0.  0.
     999903    2    3    3    0    0 -0.72491442270E-01  0.54328958165E-01 -0.89027080555E-01  0.12860234834E+00  0.20151874044E-01 0.  0.
         14    1    1    2    0    0  0.10815108444E-01 -0.17075056244E-01 -0.16509642215E-01  0.26097747076E-01  0.00000000000E+00 0.  1.
     999901    1    3    3    0    0  0.61676333827E-01 -0.37253901921E-01  0.10553672277E+00  0.88922990459E+00  0.88000000000E+00 0.  1.
        -11    1    4    4    0    0 -0.60002956908E-01  0.45250324713E-01 -0.61811759003E-01  0.97308280205E-01  0.51100000000E-03 0. -1.
         11    1    4    4    0    0 -0.12488485362E-01  0.90786334521E-02 -0.27215321551E-01  0.31294068130E-01  0.51100000000E-03 0.  1.
</event>
<event>
 8    1  0.1166736E+005  0.1043930E+01  0.7957747E-01            NaN
         13   -1    0    0    0    0  0.00000000000E+00  0.00000000000E+00  0.74505805969E-08  0.10566000000E+00  0.10566000000E+00 0.  1.
     999900   -1    0    0    0    0 -0.00000000000E+00 -0.00000000000E+00 -0.74505805969E-08  0.93827000000E+00  0.93827000000E+00 0. -1.
     999902    2    1    2    0    0  0.83563836299E-02 -0.22336523351E-01  0.15772682234E-02  0.10200294310E+01  0.10197493824E+01 0.  0.
     999903    2    3    3    0    0  0.72181669804E-02  0.89251831151E-01  0.90090549445E-01  0.12857676410E+00  0.19942062802E-01 0.  0.
         14    1    1    2    0    0 -0.83563836299E-02  0.22336523351E-01 -0.15772682234E-02  0.23900568985E-01  0.00000000000E+00 0.  1.
     999901    1    3    3    0    0  0.11382166494E-02 -0.11158835450E+00 -0.88513281221E-01  0.89145266692E+00  0.88000000000E+00 0.  1.
        -11    1    4    4    0    0  0.66302495034E-02  0.76359104673E-01  0.85602268406E-01  0.11490292665E+00  0.51100000000E-03 0. -1.
         11    1    4    4    0    0  0.58791747707E-03  0.12892726477E-01  0.44882810389E-02  0.13673837452E-01  0.51100000000E-03 0.  1.
</event>
<event>
 8    1  0.1166736E+005  0.1043930E+01  0.7957747E-01            NaN
         13   -1    0    0    0    0  0.00000000000E+00  0.00000000000E+00  0.74505805969E-08  0.10566000000E+00  0.10566000000E+00 0. -1.
     999900   -1    0    0    0    0 -0.00000000000E+00 -0.00000000000E+00 -0.74505805969E-08  0.93827000000E+00  0.93827000000E+00 0. -1.
     999902    2    1    2    0    0  0.10918958129E-01 -0.33314673344E-02  0.19989838347E-01  0.10209100965E+01  0.10206505323E+01 0.  0.
     999903    2    3    3    0    0  0.84040600764E-01 -0.88951595634E-01  0.48648876818E-01  0.13327339068E+00  0.20490839518E-01 0.  0.
         14    1    1    2    0    0 -0.10918958129E-01  0.33314673344E-02 -0.19989838347E-01  0.23019903526E-01  0.00000000000E+00 0. -1.
     999901    1    3    3    0    0 -0.73121642635E-01  0.85620128300E-01 -0.28659038471E-01  0.88763670580E+00  0.88000000000E+00 0.  1.
        -11    1    4    4    0    0  0.33740337891E-01 -0.31687628463E-01  0.28774391339E-01  0.54504521982E-01  0.51100000000E-03 0. -1.
         11    1    4    4    0    0  0.50300262873E-01 -0.57263967172E-01  0.19874485479E-01  0.78768868694E-01  0.51100000000E-03 0.  1.
</event>
<event>
 8    1  0.1166736E+005  0.1043930E+01  0.7957747E-01            NaN
         13   -1    0    0    0    0  0.00000000000E+00  0.00000000000E+00  0.74505805969E-08  0.10566000000E+00  0.10566000000E+00 0.  1.
     999900   -1    0    0    0    0 -0.00000000000E+00 -0.00000000000E+00 -0.74505805969E-08  0.93827000000E+00  0.93827000000E+00 0. -1.
     999902    2    1    2    0    0 -0.38528842142E-02 -0.40961834388E-02 -0.22790870895E-01  0.10204556048E+01  0.10201855684E+01 0.  0.
     999903    2    3    3    0    0 -0.99907109612E-01 -0.14279416363E-02  0.79572198551E-01  0.12932613509E+00  0.20249564620E-01 0.  0.
         14    1    1    2    0    0  0.38528842142E-02  0.40961834388E-02  0.22790870895E-01  0.23474395236E-01  0.00000000000E+00 0.  1.
     999901    1    3    3    0    0  0.96054225398E-01 -0.26682418025E-02 -0.10236306945E+00  0.89112946967E+00  0.88000000000E+00 0. -1.
        -11    1    4    4    0    0 -0.56799509116E-01 -0.10220624074E-01  0.49487630004E-01  0.76025864262E-01  0.51100000000E-03 0. -1.
         11    1    4    4    0    0 -0.43107600496E-01  0.87926824378E-02  0.30084568547E-01  0.53300270830E-01  0.51100000000E-03 0.  1.
</event>
<event>
 8    1  0.1166736E+005  0.1043930E+01  0.7957747E-01            NaN
         13   -1    0    0    0    0  0.00000000000E+00  0.00000000000E+00  0.74505805969E-08  0.10566000000E+00  0.10566000000E+00 0. -1.
     999900   -1    0    0    0    0 -0.00000000000E+00 -0.00000000000E+00 -0.74505805969E-08  0.93827000000E+00  0.93827000000E+00 0.  1.
     999902    2    1    2    0    0  0.61241735266E-02 -0.21796151105E-01 -0.71400123604E-02  0.10201906344E+01  0.10199143949E+01 0.  0.
     999903    2    3    3    0    0  0.29693068168E-01  0.10312963112E+00 -0.68604430372E-01  0.12893319762E+00  0.19995061167E-01 0.  0.
         14    1    1    2    0    0 -0.61241735266E-02  0.21796151105E-01  0.71400123604E-02  0.23739365638E-01  0.00000000000E+00 0. -1.
     999901    1    3    3    0    0 -0.23568894641E-01 -0.12492578222E+00  0.61464418011E-01  0.89125743674E+00  0.88000000000E+00 0. -1.
        -11    1    4    4    0    0  0.74073892050E-02  0.37649370615E-01 -0.14151193477E-01  0.40900634719E-01  0.51100000000E-03 0. -1.
         11    1    4    4    0    0  0.22285678963E-01  0.65480260504E-01 -0.54453236894E-01  0.88032562906E-01  0.51100000000E-03 0.  1.
</event>
<event>
 8    1  0.1166736E+005  0.1043930E+01  0.7957747E-01            NaN
         13   -1    0    0    0    0  0.00000000000E+00  0.00000000000E+00  0.74505805969E-08  0.10566000000E+00  0.10566000000E+00 0. -1.
     999900   -1    0    0    0    0 -0.00000000000E+00 -0.00000000000E+00 -0.74505805969E-08  0.93827000000E+00  0.93827000000E+00 0.  1.
     999902    2    1    2    0    0  0.25469500118E-01  0.18682924950E-01  0.35411947459E-02  0.10121449850E+01  0.10116457796E+01 0.  0.
     999903    2    3    3    0    0  0.54494367080E-02  0.26080935980E-01  0.11976510856E+00  0.12424660584E+00  0.19586379210E-01 0.  0.
         14    1    1    2    0    0 -0.25469500118E-01 -0.18682924950E-01 -0.35411947459E-02  0.31785015041E-01  0.00000000000E+00 0.  1.
     999901    1    3    3    0    0  0.20020063410E-01 -0.73980110298E-02 -0.11622391382E+00  0.88789837912E+00  0.88000000000E+00 0.  1.
        -11    1    4    4    0    0  0.12397668311E-03  0.19618285549E-01  0.46076139568E-01  0.50081576019E-01  0.51100000000E-03 0.  1.
         11    1    4    4    0    0  0.53254600249E-02  0.64626504303E-02  0.73688968995E-01  0.74165029816E-01  0.51100000000E-03 0. -1.
</event>
<event>
 8    1  0.1166736E+005  0.1043930E+01  0.7957747E-01            NaN
         13   -1    0    0    0    0  0.00000000000E+00  0.00000000000E+00  0.74505805969E-08  0.10566000000E+00  0.10566000000E+00 0. -1.
     999900   -1    0    0    0    0 -0.00000000000E+00 -0.00000000000E+00 -0.74505805969E-08  0.93827000000E+00  0.93827000000E+00 0.  1.
     999902    2    1    2    0    0  0.11427552693E-01 -0.19418717141E-01  0.89594933473E-02  0.10196823598E+01  0.10193940194E+01 0.  0.
     999903    2    3    3    0    0 -0.10083141245E+00  0.63002058467E-01  0.43151887696E-01  0.12807461006E+00  0.20119324576E-01 0.  0.
         14    1    1    2    0    0 -0.11427552693E-01  0.19418717141E-01 -0.89594933473E-02  0.24247640236E-01  0.00000000000E+00 0.  1.
     999901    1    3    3    0    0  0.11225896514E+00 -0.82420775608E-01 -0.34192394349E-01  0.89160774971E+00  0.88000000000E+00 0.  1.
        -11    1    4    4    0    0 -0.11534124829E-01  0.12844160151E-02  0.74624850243E-02  0.13807083827E-01  0.51100000000E-03 0.  1.
         11    1    4    4    0    0 -0.89297287622E-01  0.61717642452E-01  0.35689402672E-01  0.11426752623E+00  0.51100000000E-03 0. -1.
</event>
<event>
 8    1  0.1166736E+005  0.1043930E+01  0.7957747E-01            NaN
         13   -1    0    0    0    0  0.00000000000E+00  0.00000000000E+00  0.74505805969E-08  0.10566000000E+00  0.10566000000E+00 0.  1.
     999900   -1    0    0    0    0 -0.00000000000E+00 -0.00000000000E+00 -0.74505805969E-08  0.93827000000E+00  0.93827000000E+00 0.  1.
     999902    2    1    2    0    0 -0.16769971419E-01  0.59451128708E-02 -0.15365923238E-01  0.10204206847E+01  0.10201498350E+01 0.  0.
     999903    2    3    3    0    0  0.71850161292E-01 -0.96381812891E-01 -0.44264697783E-01  0.12960113686E+00  0.19626300529E-01 0.  0.
         14    1    1    2    0    0  0.16769971419E-01 -0.59451128708E-02  0.15365923238E-01  0.23509315289E-01  0.00000000000E+00 0.  1.
     999901    1    3    3    0    0 -0.88620132711E-01  0.10232692576E+00  0.28898774546E-01  0.89081954785E+00  0.88000000000E+00 0. -1.
        -11    1    4    4    0    0  0.53042238470E-01 -0.55625343343E-01 -0.29815837774E-01  0.82443333187E-01  0.51100000000E-03 0. -1.
         11    1    4    4    0    0  0.18807922823E-01 -0.40756469548E-01 -0.14448860009E-01  0.47157803676E-01  0.51100000000E-03 0.  1.
</event>
<event>
 8    1  0.1166736E+005  0.1043930E+01  0.7957747E-01            NaN
         13   -1    0    0    0    0  0.00000000000E+00  0.00000000000E+00  0.74505805969E-08  0.10566000000E+00  0.10566000000E+00 0. -1.
     999900   -1    0    0    0    0 -0.00000000000E+00 -0.00000000000E+00 -0.74505805969E-08  0.93827000000E+00  0.93827000000E+00 0. -1.
     999902    2    1    2    0    0 -0.49600772916E-03 -0.25808450669E-01 -0.12818191709E-01  0.10151093791E+01  0.10147001643E+01 0.  0.
     999903    2    3    3    0    0 -0.19049279102E-01  0.78022626296E-01  0.90693410179E-01  0.12278669749E+00  0.20021817625E-01 0.  0.
         14    1    1    2    0    0  0.49600772916E-03  0.25808450669E-01  0.12818191709E-01  0.28820620887E-01  0.00000000000E+00 0. -1.
     999901    1    3    3    0    0  0.18553271373E-01 -0.10383107696E+00 -0.10351160189E+00  0.89232268163E+00  0.88000000000E+00 0. -1.
        -11    1    4    4    0    0 -0.94238987170E-02  0.46188016281E-01  0.67107642799E-01  0.82011216051E-01  0.51100000000E-03 0. -1.
         11    1    4    4    0    0 -0.96253803852E-02  0.31834610014E-01  0.23585767380E-01  0.40775481435E-01  0.51100000000E-03 0.  1.
</event>
<event>
 8    1  0.1166736E+005  0.1043930E+01  0.7957747E-01            NaN
         13   -1    0    0    0    0  0.00000000000E+00  0.00000000000E+00  0.74505805969E-08  0.10566000000E+00  0.10566000000E+00 0. -1.
     999900   -1    0    0    0    0 -0.00000000000E+00 -0.00000000000E+00 -0.74505805969E-08  0.93827000000E+00  0.93827000000E+00 0. -1.
     999902    2    1    2    0    0  0.29055782367E-01  0.10386572210E-01  0.14893155902E-01  0.10096674043E+01  0.10090858942E+01 0.  0.
     999903    2    3    3    0    0 -0.32176662382E-01  0.52056913326E-01 -0.10012953248E+00  0.11909677349E+00  0.20318916193E-01 0.  0.
         14    1    1    2    0    0 -0.29055782367E-01 -0.10386572210E-01 -0.14893155902E-01  0.34262595698E-01  0.00000000000E+00 0. -1.
     999901    1    3    3    0    0  0.61232444750E-01 -0.41670341116E-01  0.11502268838E+00  0.89057063081E+00  0.88000000000E+00 0.  1.
        -11    1    4    4    0    0 -0.11559511423E-01  0.13936008257E-01 -0.47993215019E-01  0.51297606566E-01  0.51100000000E-03 0.  1.
         11    1    4    4    0    0 -0.20617150959E-01  0.38120905069E-01 -0.52136317457E-01  0.67799166927E-01  0.51100000000E-03 0. -1.
</event>
<event>
 8    1  0.1166736E+005  0.1043930E+01  0.7957747E-01            NaN
         13   -1    0    0    0    0  0.00000000000E+00  0.00000000000E+00  0.74505805969E-08  0.10566000000E+00  0.10566000000E+00 0.  1.
     999900   -1    0    0    0    0 -0.00000000000E+00 -0.00000000000E+00 -0.74505805969E-08  0.93827000000E+00  0.93827000000E+00 0.  1.
     999902    2    1    2    0    0  0.10923392214E-02  0.24767051398E-02 -0.22974248191E-01  0.10207968343E+01  0.10205346803E+01 0.  0.
     999903    2    3    3    0    0 -0.49894328759E-01  0.27946878676E-02 -0.12237392010E+00  0.13373424568E+00  0.20303148149E-01 0.  0.
         14    1    1    2    0    0 -0.10923392214E-02 -0.24767051398E-02  0.22974248191E-01  0.23133165656E-01  0.00000000000E+00 0.  1.
     999901    1    3    3    0    0  0.50986667980E-01 -0.31798272784E-03  0.99399671911E-01  0.88706258866E+00  0.88000000000E+00 0. -1.
        -11    1    4    4    0    0 -0.10922460221E-01  0.10831794597E-03 -0.52999629019E-01  0.54115928036E-01  0.51100000000E-03 0. -1.
         11    1    4    4    0    0 -0.38971868538E-01  0.26863699216E-02 -0.69374291083E-01  0.79618317647E-01  0.51100000000E-03 0.  1.
</event>
<event>
 8    1  0.1166736E+005  0.1043930E+01  0.7957747E-01            NaN
         13   -1    0    0    0    0  0.00000000000E+00  0.00000000000E+00  0.74505805969E-08  0.10566000000E+00  0.10566000000E+00 0.  1.
     999900   -1    0    0    0    0 -0.00000000000E+00 -0.00000000000E+00 -0.74505805969E-08  0.93827000000E+00  0.93827000000E+00 0.  1.
     999902    2    1    2    0    0  0.22019255881E-01  0.66733361079E-02 -0.73540139198E-02  0.10197750302E+01  0.10194889159E+01 0.  0.
     999903    2    3    3    0    0 -0.27791659815E-01 -0.28325730806E-01  0.12053155255E+00  0.12844973600E+00  0.19918738328E-01 0.  0.
         14    1    1    2    0    0 -0.22019255881E-01 -0.66733361079E-02  0.73540139198E-02  0.24154969781E-01  0.00000000000E+00 0.  1.
     999901    1    3    3    0    0  0.49810915697E-01  0.34999066914E-01 -0.12788556647E+00  0.89132529422E+00  0.88000000000E+00 0.  1.
        -11    1    4    4    0    0 -0.15942704452E-01 -0.19507701882E-01  0.10016475414E+00  0.10328581389E+00  0.51100000000E-03 0. -1.
         11    1    4    4    0    0 -0.11848955363E-01 -0.88180289240E-02  0.20366798406E-01  0.25163922103E-01  0.51100000000E-03 0.  1.
</event>
<event>
 8    1  0.1166736E+005  0.1043930E+01  0.7957747E-01            NaN
         13   -1    0    0    0    0  0.00000000000E+00  0.00000000000E+00  0.74505805969E-08  0.10566000000E+00  0.10566000000E+00 0. -1.
     999900   -1    0    0    0    0 -0.00000000000E+00 -0.00000000000E+00 -0.74505805969E-08  0.93827000000E+00  0.93827000000E+00 0. -1.
     999902    2    1    2    0    0 -0.17565772135E-01 -0.15358170829E-01 -0.61237135593E-02  0.10198067824E+01  0.10195214288E+01 0.  0.
     999903    2    3    3    0    0 -0.11398738456E+00  0.52212543586E-01  0.32951815305E-01  0.13110558074E+00  0.19585137807E-01 0.  0.
         14    1    1    2    0    0  0.17565772135E-01  0.15358170829E-01  0.61237135593E-02  0.24123217647E-01  0.00000000000E+00 0. -1.
     999901    1    3    3    0    0  0.96421612426E-01 -0.67570714415E-01 -0.39075528864E-01  0.88870120161E+00  0.88000000000E+00 0.  1.
        -11    1    4    4    0    0 -0.92714946486E-01  0.42366137255E-01  0.18614073325E-01  0.10362285334E+00  0.51100000000E-03 0. -1.
         11    1    4    4    0    0 -0.21272438075E-01  0.98464063306E-02  0.14337741979E-01  0.27482727400E-01  0.51100000000E-03 0.  1.
</event>
<event>
 8    1  0.1627963E+005  0.1043930E+01  0.7957747E-01            NaN
         13   -1    0    0    0    0  0.00000000000E+00  0.00000000000E+00  0.74505805969E-08  0.10566000000E+00  0.10566000000E+00 0.  1.
     999900   -1    0    0    0    0 -0.00000000000E+00 -0.00000000000E+00 -0.74505805969E-08  0.93827000000E+00  0.93827000000E+00 0. -1.
     999902    2    1    2    0    0 -0.12386076569E-01 -0.66681190051E-03 -0.19858793455E-01  0.10205156623E+01  0.10202470220E+01 0.  0.
     999903    2    3    3    0    0 -0.15969442512E-01 -0.79874906901E-01  0.98157004854E-01  0.12910414599E+00  0.19951417559E-01 0.  0.
         14    1    1    2    0    0  0.12386076569E-01  0.66681190051E-03  0.19858793455E-01  0.23414337666E-01  0.00000000000E+00 0.  1.
     999901    1    3    3    0    0  0.35833659425E-02  0.79208095001E-01 -0.11801579831E+00  0.89141151635E+00  0.88000000000E+00 0. -1.
        -11    1    4    4    0    0 -0.19982810228E-01 -0.55454337709E-01  0.72723239237E-01  0.93613177072E-01  0.51100000000E-03 0.  1.
         11    1    4    4    0    0  0.40133677166E-02 -0.24420569192E-01  0.25433765616E-01  0.35490968915E-01  0.51100000000E-03 0. -1.
</event>
<event>
 8    1  0.1166736E+005  0.1043930E+01  0.7957747E-01            NaN
         13   -1    0    0    0    0  0.00000000000E+00  0.00000000000E+00  0.74505805969E-08  0.10566000000E+00  0.10566000000E+00 0. -1.
     999900   -1    0    0    0    0 -0.00000000000E+00 -0.00000000000E+00 -0.74505805969E-08  0.93827000000E+00  0.93827000000E+00 0.  1.
     999902    2    1    2    0    0 -0.10283769841E-01  0.21648988991E-01 -0.58395582593E-02  0.10192614960E+01  0.10189629347E+01 0.  0.
     999903    2    3    3    0    0  0.56372190193E-01 -0.24174217506E-01  0.11060655783E+00  0.12791280939E+00  0.19122226598E-01 0.  0.
         14    1    1    2    0    0  0.10283769841E-01 -0.21648988991E-01  0.58395582593E-02  0.24668503950E-01  0.00000000000E+00 0.  1.
     999901    1    3    3    0    0 -0.66655960034E-01  0.45823206497E-01 -0.11644611609E+00  0.89134868666E+00  0.88000000000E+00 0.  1.
        -11    1    4    4    0    0  0.28464125726E-01 -0.51841991994E-02  0.37320591962E-01  0.47224676601E-01  0.51100000000E-03 0.  1.
         11    1    4    4    0    0  0.27908064467E-01 -0.18990018307E-01  0.73285965873E-01  0.80688132786E-01  0.51100000000E-03 0. -1.
</event>
<event>
 8    1  0.1166736E+005  0.1043930E+01  0.7957747E-01            NaN
         13   -1    0    0    0    0  0.00000000000E+00  0.00000000000E+00  0.74505805969E-08  0.10566000000E+00  0.10566000000E+00 0.  1.
     999900   -1    0    0    0    0 -0.00000000000E+00 -0.00000000000E+00 -0.74505805969E-08  0.93827000000E+00  0.93827000000E+00 0. -1.
     999902    2    1    2    0    0  0.24008399421E-02 -0.16270592157E-01 -0.24362925167E-01  0.10145353011E+01  0.10141093772E+01 0.  0.
     999903    2    3    3    0    0  0.30904648884E-01  0.68510632763E-01  0.94030371602E-01  0.12211314989E+00  0.20520878843E-01 0.  0.
         14    1    1    2    0    0 -0.24008399421E-02  0.16270592157E-01  0.24362925167E-01  0.29394698914E-01  0.00000000000E+00 0.  1.
     999901    1    3    3    0    0 -0.28503808942E-01 -0.84781224920E-01 -0.11839329677E+00  0.89242215119E+00  0.88000000000E+00 0. -1.
        -11    1    4    4    0    0  0.22142646751E-01  0.25563372555E-01  0.36136962216E-01  0.49496706766E-01  0.51100000000E-03 0. -1.
         11    1    4    4    0    0  0.87620021335E-02  0.42947260208E-01  0.57893409386E-01  0.72616443125E-01  0.51100000000E-03 0.  1.
</event>
<event>
 8    1  0.1166736E+005  0.1043930E+01  0.7957747E-01            NaN
         13   -1    0    0    0    0  0.00000000000E+00  0.00000000000E+00  0.74505805969E-08  0.10566000000E+00  0.10566000000E+00 0.  1.
     999900   -1    0    0    0    0 -0.00000000000E+00 -0.00000000000E+00 -0.74505805969E-08  0.93827000000E+00  0.93827000000E+00 0.  1.
     999902    2    1    2    0    0  0.89313681848E-02 -0.21994204262E-01  0.57253357784E-02  0.10195108717E+01  0.10192183886E+01 0.  0.
     999903    2    3    3    0    0 -0.58998649975E-01 -0.11204066446E+00  0.30718811824E-01  0.13195944994E+00  0.20873424208E-01 0.  0.
         14    1    1    2    0    0 -0.89313681848E-02  0.21994204262E-01 -0.57253357784E-02  0.24419128333E-01  0.00000000000E+00 0. -1.
     999901    1    3    3    0    0  0.67930018159E-01  0.90046460195E-01 -0.24993476046E-01  0.88755142172E+00  0.88000000000E+00 0. -1.
        -11    1    4    4    0    0 -0.35488065186E-01 -0.58623937560E-01  0.26386629814E-01  0.73434897560E-01  0.51100000000E-03 0.  1.
         11    1    4    4    0    0 -0.23510584788E-01 -0.53416726898E-01  0.43321820105E-02  0.58524552382E-01  0.51100000000E-03 0. -1.
</event>
<event>
 8    1  0.1166736E+005  0.1043930E+01  0.7957747E-01            NaN
         13   -1    0    0    0    0  0.00000000000E+00  0.00000000000E+00  0.74505805969E-08  0.10566000000E+00  0.10566000000E+00 0.  1.
     999900   -1    0    0    0    0 -0.00000000000E+00 -0.00000000000E+00 -0.74505805969E-08  0.93827000000E+00  0.93827000000E+00 0. -1.
     999902    2    1    2    0    0  0.14464577947E-01 -0.14139351846E-01  0.14801466345E-01  0.10188655093E+01  0.10185571645E+01 0.  0.
     999903    2    3    3    0    0 -0.42788826690E-01  0.79946083623E-01  0.89527248320E-01  0.12885766444E+00  0.19154882300E-01 0.  0.
         14    1    1    2    0    0 -0.14464577947E-01  0.14139351846E-01 -0.14801466345E-01  0.25064490655E-01  0.00000000000E+00 0. -1.
     999901    1    3    3    0    0  0.57253404637E-01 -0.94085435469E-01 -0.74725781975E-01  0.89000784491E+00  0.88000000000E+00 0.  1.
        -11    1    4    4    0    0 -0.10558717021E-01  0.25844000501E-01  0.16528641341E-01  0.32447742180E-01  0.51100000000E-03 0.  1.
         11    1    4    4    0    0 -0.32230109668E-01  0.54102083122E-01  0.72998606979E-01  0.96409922255E-01  0.51100000000E-03 0. -1.
</event>
<event>
 8    1  0.1166736E+005  0.1043930E+01  0.7957747E-01            NaN
         13   -1    0    0    0    0  0.00000000000E+00  0.00000000000E+00  0.74505805969E-08  0.10566000000E+00  0.10566000000E+00 0. -1.
     999900   -1    0    0    0    0 -0.00000000000E+00 -0.00000000000E+00 -0.74505805969E-08  0.93827000000E+00  0.93827000000E+00 0.  1.
     999902    2    1    2    0    0 -0.16850866784E-01  0.12803239865E-01 -0.10954366059E-01  0.10200999182E+01  0.10198215385E+01 0.  0.
     999903    2    3    3    0    0  0.41839504296E-01 -0.61420349953E-01 -0.10524476628E+00  0.13001880925E+00  0.17476453355E-01 0.  0.
         14    1    1    2    0    0  0.16850866784E-01 -0.12803239865E-01  0.10954366059E-01  0.23830081791E-01  0.00000000000E+00 0. -1.
     999901    1    3    3    0    0 -0.58690371080E-01  0.74223589818E-01  0.94290400224E-01  0.89008110895E+00  0.88000000000E+00 0. -1.
        -11    1    4    4    0    0  0.27347228010E-01 -0.52313816097E-01 -0.77629052159E-01  0.97525058803E-01  0.51100000000E-03 0. -1.
         11    1    4    4    0    0  0.14492276285E-01 -0.91065338565E-02 -0.27615714124E-01  0.32493750451E-01  0.51100000000E-03 0.  1.
</event>
<event>
 8    1  0.1166736E+005  0.1043930E+01  0.7957747E-01            NaN
         13   -1    0    0    0    0  0.00000000000E+00  0.00000000000E+00  0.74505805969E-08  0.10566000000E+00  0.10566000000E+00 0. -1.
     999900   -1    0    0    0    0 -0.00000000000E+00 -0.00000000000E+00 -0.74505805969E-08  0.93827000000E+00  0.93827000000E+00 0.  1.
     999902    2    1    2    0    0 -0.20208731618E-01 -0.64232070170E-02  0.91860172007E-02  0.10208208387E+01  0.10205592347E+01 0.  0.
     999903    2    3    3    0    0  0.86896471875E-01 -0.93734348222E-01 -0.97583319215E-02  0.12983618772E+00  0.20617607499E-01 0.  0.
         14    1    1    2    0    0  0.20208731618E-01  0.64232070170E-02 -0.91860172007E-02  0.23109161257E-01  0.00000000000E+00 0.  1.
     999901    1    3    3    0    0 -0.10710520349E+00  0.87311141205E-01  0.18944349122E-01  0.89098465102E+00  0.88000000000E+00 0. -1.
        -11    1    4    4    0    0  0.73468907640E-01 -0.69030441022E-01 -0.12484077489E-01  0.10158245660E+00  0.51100000000E-03 0.  1.
         11    1    4    4    0    0  0.13427564235E-01 -0.24703907200E-01  0.27257455677E-02  0.28253731119E-01  0.51100000000E-03 0. -1.
</event>
<event>
 8    1  0.1166736E+005  0.1043930E+01  0.7957747E-01            NaN
         13   -1    0    0    0    0  0.00000000000E+00  0.00000000000E+00  0.74505805969E-08  0.10566000000E+00  0.10566000000E+00 0.  1.
     999900   -1    0    0    0    0 -0.00000000000E+00 -0.00000000000E+00 -0.74505805969E-08  0.93827000000E+00  0.93827000000E+00 0. -1.
     999902    2    1    2    0    0 -0.10606305625E-02 -0.20497671598E-01 -0.10419716147E-01  0.10209115300E+01  0.10206519985E+01 0.  0.
     999903    2    3    3    0    0  0.80820571217E-01 -0.52188706525E-01 -0.90518735406E-01  0.13292239389E+00  0.14801875483E-01 0.  0.
         14    1    1    2    0    0  0.10606305625E-02  0.20497671598E-01  0.10419716147E-01  0.23018470034E-01  0.00000000000E+00 0.  1.
     999901    1    3    3    0    0 -0.81881201780E-01  0.31691034927E-01  0.80099019259E-01  0.88798913607E+00  0.88000000000E+00 0.  1.
        -11    1    4    4    0    0  0.67308490211E-01 -0.38550946732E-01 -0.66517439104E-01  0.10218336056E+00  0.51100000000E-03 0. -1.
         11    1    4    4    0    0  0.13512081006E-01 -0.13637759793E-01 -0.24001296302E-01  0.30739033336E-01  0.51100000000E-03 0.  1.
</event>
<event>
 8    1  0.1166736E+005  0.1043930E+01  0.7957747E-01            NaN
         13   -1    0    0    0    0  0.00000000000E+00  0.00000000000E+00  0.74505805969E-08  0.10566000000E+00  0.10566000000E+00 0. -1.
     999900   -1    0    0    0    0 -0.00000000000E+00 -0.00000000000E+00 -0.74505805969E-08  0.93827000000E+00  0.93827000000E+00 0.  1.
     999902    2    1    2    0    0  0.97903573840E-02 -0.87596800169E-02  0.17320884994E-01  0.10221907234E+01  0.10219595289E+01 0.  0.
     999903    2    3    3    0    0 -0.70435092699E-01 -0.76611965038E-01  0.81439266702E-01  0.13362377468E+00  0.19810692260E-01 0.  0.
         14    1    1    2    0    0 -0.97903573840E-02  0.87596800169E-02 -0.17320884994E-01  0.21739276636E-01  0.00000000000E+00 0.  1.
     999901    1    3    3    0    0  0.80225450083E-01  0.67852285021E-01 -0.64118381708E-01  0.88856694869E+00  0.88000000000E+00 0.  1.
        -11    1    4    4    0    0 -0.17327786181E-01 -0.26863461041E-01  0.15973391097E-01  0.35739446795E-01  0.51100000000E-03 0. -1.
         11    1    4    4    0    0 -0.53107306518E-01 -0.49748503996E-01  0.65465875605E-01  0.97884327883E-01  0.51100000000E-03 0.  1.
</event>
<event>
 8    1  0.1166736E+005  0.1043930E+01  0.7957747E-01            NaN
         13   -1    0    0    0    0  0.00000000000E+00  0.00000000000E+00  0.74505805969E-08  0.10566000000E+00  0.10566000000E+00 0.  1.
     999900   -1    0    0    0    0 -0.00000000000E+00 -0.00000000000E+00 -0.74505805969E-08  0.93827000000E+00  0.93827000000E+00 0. -1.
     999902    2    1    2    0    0 -0.34183688825E-01 -0.85643941957E-03  0.25561749384E-02  0.10096401750E+01  0.10090577242E+01 0.  0.
     999903    2    3    3    0    0  0.10335819932E+00 -0.47180224395E-01 -0.22164745445E-01  0.11740994238E+00  0.19619574123E-01 0.  0.
         14    1    1    2    0    0  0.34183688825E-01  0.85643941957E-03 -0.25561749384E-02  0.34289825029E-01  0.00000000000E+00 0.  1.
     999901    1    3    3    0    0 -0.13754188814E+00  0.46323784976E-01  0.24720920384E-01  0.89223023259E+00  0.88000000000E+00 0. -1.
        -11    1    4    4    0    0  0.33289767767E-01 -0.24983960600E-01 -0.49456521921E-02  0.41918104941E-01  0.51100000000E-03 0.  1.
         11    1    4    4    0    0  0.70068431549E-01 -0.22196263796E-01 -0.17219093253E-01  0.75491837438E-01  0.51100000000E-03 0. -1.
</event>
<event>
 8    1  0.1166736E+005  0.1043930E+01  0.7957747E-01            NaN
         13   -1    0    0    0    0  0.00000000000E+00  0.00000000000E+00  0.74505805969E-08  0.10566000000E+00  0.10566000000E+00 0. -1.
     999900   -1    0    0    0    0 -0.00000000000E+00 -0.00000000000E+00 -0.74505805969E-08  0.93827000000E+00  0.93827000000E+00 0. -1.
     999902    2    1    2    0    0 -0.22749754713E-01  0.38460651386E-02  0.75053664451E-02  0.10196673933E+01  0.10193786926E+01 0.  0.
     999903    2    3    3    0    0 -0.62433906748E-01 -0.89206510695E-01 -0.69218368751E-01  0.13055539514E+00  0.19943278722E-01 0.  0.
         14    1    1    2    0    0  0.22749754713E-01 -0.38460651386E-02 -0.75053664451E-02  0.24262606662E-01  0.00000000000E+00 0.  1.
     999901    1    3    3    0    0  0.39684152035E-01  0.93052575834E-01  0.76723735196E-01  0.88911199820E+00  0.88000000000E+00 0.  1.
        -11    1    4    4    0    0 -0.11262444482E-01 -0.32059938599E-01 -0.21046652616E-01  0.39973804247E-01  0.51100000000E-03 0. -1.
         11    1    4    4    0    0 -0.51171462266E-01 -0.57146572096E-01 -0.48171716135E-01  0.90581590896E-01  0.51100000000E-03 0.  1.
</event>
<event>
 8    1  0.1166736E+005  0.1043930E+01  0.7957747E-01            NaN
         13   -1    0    0    0    0  0.00000000000E+00  0.00000000000E+00  0.74505805969E-08  0.10566000000E+00  0.10566000000E+00 0.  1.
     999900   -1    0    0    0    0 -0.00000000000E+00 -0.00000000000E+00 -0.74505805969E-08  0.93827000000E+00  0.93827000000E+00 0. -1.
     999902    2    1    2    0    0 -0.22304373965E-01  0.67832145733E-02  0.55010359691E-02  0.10199767435E+01  0.10196954442E+01 0.  0.
     999903    2    3    3    0    0  0.78066571998E-01 -0.27364715273E-01  0.96783927121E-01  0.12892513218E+00  0.20281613667E-01 0.  0.
         14    1    1    2    0    0  0.22304373965E-01 -0.67832145733E-02 -0.55010359691E-02  0.23953256452E-01  0.00000000000E+00 0.  1.
     999901    1    3    3    0    0 -0.10037094596E+00  0.34147929846E-01 -0.91282891152E-01  0.89105161137E+00  0.88000000000E+00 0. -1.
        -11    1    4    4    0    0  0.45161206705E-01 -0.54038906541E-02  0.48289084357E-01  0.66338777607E-01  0.51100000000E-03 0. -1.
         11    1    4    4    0    0  0.32905365293E-01 -0.21960824619E-01  0.48494842764E-01  0.62586354572E-01  0.51100000000E-03 0.  1.
</event>
<event>
 8    1  0.1166736E+005  0.1043930E+01  0.7957747E-01            NaN
         13   -1    0    0    0    0  0.00000000000E+00  0.00000000000E+00  0.74505805969E-08  0.10566000000E+00  0.10566000000E+00 0. -1.
     999900   -1    0    0    0    0 -0.00000000000E+00 -0.00000000000E+00 -0.74505805969E-08  0.93827000000E+00  0.93827000000E+00 0. -1.
     999902    2    1    2    0    0  0.12540702598E-01  0.19641467548E-01  0.25591660948E-02  0.10204863271E+01  0.10202170053E+01 0.  0.
     999903    2    3    3    0    0  0.13047293814E+00  0.91981164477E-02  0.79812424225E-02  0.13254124168E+00  0.19891897415E-01 0.  0.
         14    1    1    2    0    0 -0.12540702598E-01 -0.19641467548E-01 -0.25591660948E-02  0.23443672924E-01  0.00000000000E+00 0.  1.
     999901    1    3    3    0    0 -0.11793223554E+00  0.10443351100E-01 -0.54220763277E-02  0.88794508539E+00  0.88000000000E+00 0. -1.
        -11    1    4    4    0    0  0.88121448330E-01  0.24567103787E-02  0.13902635910E-01  0.89246677741E-01  0.51100000000E-03 0. -1.
         11    1    4    4    0    0  0.42351489811E-01  0.67414060690E-02 -0.59213934872E-02  0.43294563941E-01  0.51100000000E-03 0.  1.
</event>
<event>
 8    1  0.1166736E+005  0.1043930E+01  0.7957747E-01            NaN
         13   -1    0    0    0    0  0.00000000000E+00  0.00000000000E+00  0.74505805969E-08  0.10566000000E+00  0.10566000000E+00 0. -1.
     999900   -1    0    0    0    0 -0.00000000000E+00 -0.00000000000E+00 -0.74505805969E-08  0.93827000000E+00  0.93827000000E+00 0. -1.
     999902    2    1    2    0    0  0.15689461002E-01 -0.19752798375E-01  0.26341010917E-02  0.10185672178E+01  0.10182513965E+01 0.  0.
     999903    2    3    3    0    0  0.94714185443E-01 -0.56459386627E-01 -0.68615800618E-01  0.13139822087E+00  0.19973109207E-01 0.  0.
         14    1    1    2    0    0 -0.15689461002E-01  0.19752798375E-01 -0.26341010917E-02  0.25362782157E-01  0.00000000000E+00 0.  1.
     999901    1    3    3    0    0 -0.79024724441E-01  0.36706588252E-01  0.71249901709E-01  0.88716899697E+00  0.88000000000E+00 0. -1.
        -11    1    4    4    0    0  0.14937633875E-01 -0.14323215547E-02 -0.71057463327E-02  0.16611357644E-01  0.51100000000E-03 0. -1.
         11    1    4    4    0    0  0.79776551568E-01 -0.55027065072E-01 -0.61510054285E-01  0.11478686323E+00  0.51100000000E-03 0.  1.
</event>
<event>
 8    1  0.1166736E+005  0.1043930E+01  0.7957747E-01            NaN
         13   -1    0    0    0    0  0.00000000000E+00  0.00000000000E+00  0.74505805969E-08  0.10566000000E+00  0.10566000000E+00 0. -1.
     999900   -1    0    0    0    0 -0.00000000000E+00 -0.00000000000E+00 -0.74505805969E-08  0.93827000000E+00  0.93827000000E+00 0.  1.
     999902    2    1    2    0    0  0.20180732412E-01 -0.16501260775E-02 -0.10236584149E-01  0.10212414008E+01  0.10209893370E+01 0.  0.
     999903    2    3    3    0    0 -0.11647933015E+00 -0.12727741897E-02 -0.53081042448E-01  0.12966315823E+00  0.20636938460E-01 0.  0.
         14    1    1    2    0    0 -0.20180732412E-01  0.16501260775E-02  0.10236584149E-01  0.22688599159E-01  0.00000000000E+00 0. -1.
     999901    1    3    3    0    0  0.13666006256E+00 -0.37735188777E-03  0.42844458299E-01  0.89157824261E+00  0.88000000000E+00 0.  1.
        -11    1    4    4    0    0 -0.88683579280E-01  0.48203952368E-02 -0.47284249026E-01  0.10061846138E+00  0.51100000000E-03 0. -1.
         11    1    4    4    0    0 -0.27795750866E-01 -0.60931694266E-02 -0.57967934223E-02  0.29044696845E-01  0.51100000000E-03 0.  1.
</event>
<event>
 8    1  0.1166736E+005  0.1043930E+01  0.7957747E-01            NaN
         13   -1    0    0    0    0  0.00000000000E+00  0.00000000000E+00  0.74505805969E-08  0.10566000000E+00  0.10566000000E+00 0. -1.
     999900   -1    0    0    0    0 -0.00000000000E+00 -0.00000000000E+00 -0.74505805969E-08  0.93827000000E+00  0.93827000000E+00 0. -1.
     999902    2    1    2    0    0  0.19647728687E-01 -0.55480246242E-03 -0.14597820521E-01  0.10194465890E+01  0.10191525453E+01 0.  0.
     999903    2    3    3    0    0  0.10640146030E+00 -0.42525097522E-01  0.60404383870E-01  0.13101367301E+00  0.19652945101E-01 0.  0.
         14    1    1    2    0    0 -0.19647728687E-01  0.55480246242E-03  0.14597820521E-01  0.24483410961E-01  0.00000000000E+00 0. -1.
     999901    1    3    3    0    0 -0.86753731617E-01  0.41970295060E-01 -0.75002204391E-01  0.88843291603E+00  0.88000000000E+00 0.  1.
        -11    1    4    4    0    0  0.79684039654E-01 -0.35297330441E-01  0.36686272279E-01  0.94559988402E-01  0.51100000000E-03 0.  1.
         11    1    4    4    0    0  0.26717420650E-01 -0.72277670813E-02  0.23718111591E-01  0.36453684609E-01  0.51100000000E-03 0. -1.
</event>
<event>
 8    1  0.1166736E+005  0.1043930E+01  0.7957747E-01            NaN
         13   -1    0    0    0    0  0.00000000000E+00  0.00000000000E+00  0.74505805969E-08  0.10566000000E+00  0.10566000000E+00 0.  1.
     999900   -1    0    0    0    0 -0.00000000000E+00 -0.00000000000E+00 -0.74505805969E-08  0.93827000000E+00  0.93827000000E+00 0.  1.
     999902    2    1    2    0    0  0.12947740338E-01 -0.94496465422E-02  0.18395341144E-01  0.10195306481E+01  0.10192386443E+01 0.  0.
     999903    2    3    3    0    0  0.61792501387E-02  0.84277835550E-01  0.97989698821E-01  0.13095543169E+00  0.20159546545E-01 0.  0.
         14    1    1    2    0    0 -0.12947740338E-01  0.94496465422E-02 -0.18395341144E-01  0.24399351947E-01  0.00000000000E+00 0. -1.
     999901    1    3    3    0    0  0.67684901997E-02 -0.93727482093E-01 -0.79594357677E-01  0.88857521636E+00  0.88000000000E+00 0.  1.
        -11    1    4    4    0    0 -0.12537638924E-02  0.37211557818E-01  0.57078078983E-01  0.68150129717E-01  0.51100000000E-03 0.  1.
         11    1    4    4    0    0  0.74330140310E-02  0.47066277732E-01  0.40911619839E-01  0.62805301973E-01  0.51100000000E-03 0. -1.
</event>
<event>
 8    1  0.1166736E+005  0.1043930E+01  0.7957747E-01            NaN
         13   -1    0    0    0    0  0.00000000000E+00  0.00000000000E+00  0.74505805969E-08  0.10566000000E+00  0.10566000000E+00 0.  1.
     999900   -1    0    0    0    0 -0.00000000000E+00 -0.00000000000E+00 -0.74505805969E-08  0.93827000000E+00  0.93827000000E+00 0. -1.
     999902    2    1    2    0    0 -0.12969254898E-01 -0.17821412581E-01 -0.72665970905E-02  0.10207220757E+01  0.10204582049E+01 0.  0.
     999903    2    3    3    0    0  0.21099874582E-01 -0.84342853497E-01 -0.98497998535E-01  0.13285441869E+00  0.19736240924E-01 0.  0.
         14    1    1    2    0    0  0.12969254898E-01  0.17821412581E-01  0.72665970905E-02  0.23207924342E-01  0.00000000000E+00 0. -1.
     999901    1    3    3    0    0 -0.34069129480E-01  0.66521440916E-01  0.91231401444E-01  0.88786765697E+00  0.88000000000E+00 0.  1.
        -11    1    4    4    0    0  0.90821803419E-02 -0.56788823760E-01 -0.52311640228E-01  0.77744616072E-01  0.51100000000E-03 0.  1.
         11    1    4    4    0    0  0.12017694241E-01 -0.27554029737E-01 -0.46186358307E-01  0.55109802615E-01  0.51100000000E-03 0. -1.
</event>
<event>
 8    1  0.1166736E+005  0.1043930E+01  0.7957747E-01            NaN
         13   -1    0    0    0    0  0.00000000000E+00  0.00000000000E+00  0.74505805969E-08  0.10566000000E+00  0.10566000000E+00 0.  1.
     999900   -1    0    0    0    0 -0.00000000000E+00 -0.00000000000E+00 -0.74505805969E-08  0.93827000000E+00  0.93827000000E+00 0. -1.
     999902    2    1    2    0    0  0.13436174915E-01  0.20798831762E-01 -0.41556973548E-02  0.10188223912E+01  0.10185129713E+01 0.  0.
     999903    2    3    3    0    0 -0.12445326905E+00  0.36858633722E-02  0.19375298030E-01  0.12760970043E+00  0.20165111069E-01 0.  0.
         14    1    1    2    0    0 -0.13436174915E-01 -0.20798831762E-01  0.41556973548E-02  0.25107608798E-01  0.00000000000E+00 0. -1.
     999901    1    3    3    0    0  0.13788944397E+00  0.17112968390E-01 -0.23530995385E-01  0.89121269077E+00  0.88000000000E+00 0. -1.
        -11    1    4    4    0    0 -0.56353750626E-01  0.10940228350E-01  0.12719279098E-01  0.58800297515E-01  0.51100000000E-03 0. -1.
         11    1    4    4    0    0 -0.68099518425E-01 -0.72543649780E-02  0.66560189316E-02  0.68809402919E-01  0.51100000000E-03 0.  1.
</event>
<event>
 8    1  0.1166736E+005  0.1043930E+01  0.7957747E-01            NaN
         13   -1    0    0    0    0  0.00000000000E+00  0.00000000000E+00  0.74505805969E-08  0.10566000000E+00  0.10566000000E+00 0.  1.
     999900   -1    0    0    0    0 -0.00000000000E+00 -0.00000000000E+00 -0.74505805969E-08  0.93827000000E+00  0.93827000000E+00 0. -1.
     999902    2    1    2    0    0 -0.25079544632E-01  0.47566485148E-04  0.75999319051E-03  0.10188388978E+01  0.10185298897E+01 0.  0.
     999903    2    3    3    0    0 -0.96217881004E-01 -0.71938611117E-03  0.87528410094E-01  0.13171432405E+00  0.20713339807E-01 0.  0.
         14    1    1    2    0    0  0.25079544632E-01 -0.47566485148E-04 -0.75999319051E-03  0.25091102231E-01  0.00000000000E+00 0. -1.
     999901    1    3    3    0    0  0.71138336372E-01  0.76695259632E-03 -0.86768416903E-01  0.88712457372E+00  0.88000000000E+00 0. -1.
        -11    1    4    4    0    0 -0.47104877739E-01  0.23806088061E-03  0.56704616816E-01  0.73719745449E-01  0.51100000000E-03 0. -1.
         11    1    4    4    0    0 -0.49113003265E-01 -0.95744699178E-03  0.30823793277E-01  0.57994578604E-01  0.51100000000E-03 0.  1.
</event>
<event>
 8    1  0.1166736E+005  0.1043930E+01  0.7957747E-01            NaN
         13   -1    0    0    0    0  0.00000000000E+00  0.00000000000E+00  0.74505805969E-08  0.10566000000E+00  0.10566000000E+00 0. -1.
     999900   -1    0    0    0    0 -0.00000000000E+00 -0.00000000000E+00 -0.74505805969E-08  0.93827000000E+00  0.93827000000E+00 0.  1.
     999902    2    1    2    0    0 -0.11206169871E-01 -0.37102137808E-02 -0.20329333826E-01  0.10204220068E+01  0.10201511879E+01 0.  0.
     999903    2    3    3    0    0  0.65058582623E-01  0.98940183408E-01  0.46152720644E-01  0.12869711646E+00  0.20275480204E-01 0.  0.
         14    1    1    2    0    0  0.11206169871E-01  0.37102137808E-02  0.20329333826E-01  0.23507993179E-01  0.00000000000E+00 0. -1.
     999901    1    3    3    0    0 -0.76264752494E-01 -0.10265039719E+00 -0.66482054471E-01  0.89172489036E+00  0.88000000000E+00 0.  1.
        -11    1    4    4    0    0  0.13952319533E-01  0.34783337728E-01  0.84505534046E-02  0.38421618624E-01  0.51100000000E-03 0.  1.
         11    1    4    4    0    0  0.51106263090E-01  0.64156845680E-01  0.37702167240E-01  0.90275497840E-01  0.51100000000E-03 0. -1.
</event>
<event>
 8    1  0.1166736E+005  0.1043930E+01  0.7957747E-01            NaN
         13   -1    0    0    0    0  0.00000000000E+00  0.00000000000E+00  0.74505805969E-08  0.10566000000E+00  0.10566000000E+00 0. -1.
     999900   -1    0    0    0    0 -0.00000000000E+00 -0.00000000000E+00 -0.74505805969E-08  0.93827000000E+00  0.93827000000E+00 0.  1.
     999902    2    1    2    0    0  0.11520902971E-01  0.16199724030E-01 -0.65654072368E-02  0.10229951765E+01  0.10227809464E+01 0.  0.
     999903    2    3    3    0    0 -0.10154400396E+00 -0.24031638309E-01 -0.78254820336E-01  0.13196116610E+00  0.20030678289E-01 0.  0.
         14    1    1    2    0    0 -0.11520902971E-01 -0.16199724030E-01  0.65654072368E-02  0.20934823527E-01  0.00000000000E+00 0.  1.
     999901    1    3    3    0    0  0.11306490693E+00  0.40231362339E-01  0.71689413099E-01  0.89103401037E+00  0.88000000000E+00 0. -1.
        -11    1    4    4    0    0 -0.56075239150E-01 -0.15964078407E-01 -0.55421427325E-01  0.80443023145E-01  0.51100000000E-03 0. -1.
         11    1    4    4    0    0 -0.45468764808E-01 -0.80675599021E-02 -0.22833393011E-01  0.51518142953E-01  0.51100000000E-03 0.  1.
</event>
<event>
 8    1  0.1166736E+005  0.1043930E+01  0.7957747E-01            NaN
         13   -1    0    0    0    0  0.00000000000E+00  0.00000000000E+00  0.74505805969E-08  0.10566000000E+00  0.10566000000E+00 0. -1.
     999900   -1    0    0    0    0 -0.00000000000E+00 -0.00000000000E+00 -0.74505805969E-08  0.93827000000E+00  0.93827000000E+00 0.  1.
     999902    2    1    2    0    0 -0.11796603370E-01  0.88792442708E-02 -0.18454062929E-01  0.10202962684E+01  0.10200225106E+01 0.  0.
     999903    2    3    3    0    0 -0.13006777119E+00 -0.99093167827E-02  0.27580154413E-02  0.13193202362E+00  0.19560995500E-01 0.  0.
         14    1    1    2    0    0  0.11796603370E-01 -0.88792442708E-02  0.18454062929E-01  0.23633731582E-01  0.00000000000E+00 0. -1.
     999901    1    3    3    0    0  0.11827116782E+00  0.18788561053E-01 -0.21212078370E-01  0.88836424480E+00  0.88000000000E+00 0.  1.
        -11    1    4    4    0    0 -0.11408904909E+00 -0.32056358737E-02 -0.12378982361E-02  0.11414193242E+00  0.51100000000E-03 0. -1.
         11    1    4    4    0    0 -0.15978722108E-01 -0.67036809090E-02  0.39959136774E-02  0.17790091204E-01  0.51100000000E-03 0.  1.
</event>
<event>
 8    1  0.1166736E+005  0.1043930E+01  0.7957747E-01            NaN
         13   -1    0    0    0    0  0.00000000000E+00  0.00000000000E+00  0.74505805969E-08  0.10566000000E+00  0.10566000000E+00 0. -1.
     999900   -1    0    0    0    0 -0.00000000000E+00 -0.00000000000E+00 -0.74505805969E-08  0.93827000000E+00  0.93827000000E+00 0.  1.
     999902    2    1    2    0    0  0.14625337503E-01  0.17767747415E-01 -0.37558011629E-03  0.10209140402E+01  0.10206545660E+01 0.  0.
     999903    2    3    3    0    0  0.24731630434E-03  0.75702116990E-01 -0.10701998130E+00  0.13246812345E+00  0.19069757525E-01 0.  0.
         14    1    1    2    0    0 -0.14625337503E-01 -0.17767747415E-01  0.37558011629E-03  0.23015959804E-01  0.00000000000E+00 0. -1.
     999901    1    3    3    0    0  0.14378021198E-01 -0.57934369575E-01  0.10664440118E+00  0.88844591674E+00  0.88000000000E+00 0. -1.
        -11    1    4    4    0    0  0.25299699976E-03  0.71427079215E-02 -0.27463380414E-02  0.76737068990E-02  0.51100000000E-03 0.  1.
         11    1    4    4    0    0 -0.56806954133E-05  0.68559409068E-01 -0.10427364326E+00  0.12479441656E+00  0.51100000000E-03 0. -1.
</event>
<event>
 8    1  0.1166736E+005  0.1043930E+01  0.7957747E-01            NaN
         13   -1    0    0    0    0  0.00000000000E+00  0.00000000000E+00  0.74505805969E-08  0.10566000000E+00  0.10566000000E+00 0. -1.
     999900   -1    0    0    0    0 -0.00000000000E+00 -0.00000000000E+00 -0.74505805969E-08  0.93827000000E+00  0.93827000000E+00 0. -1.
     999902    2    1    2    0    0 -0.17062729005E-01 -0.11054586264E-01  0.21576200339E-01  0.10142842074E+01  0.10138508669E+01 0.  0.
     999903    2    3    3    0    0  0.56063231926E-01 -0.51731914415E-01 -0.94036949600E-01  0.12278633772E+00  0.20353375569E-01 0.  0.
         14    1    1    2    0    0  0.17062729005E-01  0.11054586264E-01 -0.21576200339E-01  0.29645792612E-01  0.00000000000E+00 0.  1.
     999901    1    3    3    0    0 -0.73125960930E-01  0.40677328151E-01  0.11561314994E+00  0.89149786967E+00  0.88000000000E+00 0.  1.
        -11    1    4    4    0    0  0.31341366997E-01 -0.23720169758E-01 -0.62784728685E-01  0.74075036386E-01  0.51100000000E-03 0. -1.
         11    1    4    4    0    0  0.24721864929E-01 -0.28011744656E-01 -0.31252220915E-01  0.48711301331E-01  0.51100000000E-03 0.  1.
</event>
<event>
 8    1  0.1166736E+005  0.1043930E+01  0.7957747E-01            NaN
         13   -1    0    0    0    0  0.00000000000E+00  0.00000000000E+00  0.74505805969E-08  0.10566000000E+00  0.10566000000E+00 0. -1.
     999900   -1    0    0    0    0 -0.00000000000E+00 -0.00000000000E+00 -0.74505805969E-08  0.93827000000E+00  0.93827000000E+00 0.  1.
     999902    2    1    2    0    0  0.13587904648E-02 -0.17974526658E-01  0.14286772839E-01  0.10209290914E+01  0.10206699603E+01 0.  0.
     999903    2    3    3    0    0 -0.88782444004E-01  0.79485240570E-01 -0.44918315619E-01  0.12900471627E+00  0.20599415284E-01 0.  0.
         14    1    1    2    0    0 -0.13587904648E-02  0.17974526658E-01 -0.14286772839E-01  0.23000908640E-01  0.00000000000E+00 0.  1.
     999901    1    3    3    0    0  0.90141234469E-01 -0.97459767228E-01  0.59205088458E-01  0.89192437509E+00  0.88000000000E+00 0.  1.
        -11    1    4    4    0    0 -0.25074676241E-01  0.34967128019E-01 -0.19377825823E-01  0.47193227110E-01  0.51100000000E-03 0.  1.
         11    1    4    4    0    0 -0.63707767764E-01  0.44518112551E-01 -0.25540489796E-01  0.81811489160E-01  0.51100000000E-03 0. -1.
</event>
<event>
 8    1  0.1166736E+005  0.1043930E+01  0.7957747E-01            NaN
         13   -1    0    0    0    0  0.00000000000E+00  0.00000000000E+00  0.74505805969E-08  0.10566000000E+00  0.10566000000E+00 0. -1.
     999900   -1    0    0    0    0 -0.00000000000E+00 -0.00000000000E+00 -0.74505805969E-08  0.93827000000E+00  0.93827000000E+00 0. -1.
     999902    2    1    2    0    0  0.14523947372E-02 -0.12362002269E-01  0.19468651757E-01  0.10208224914E+01  0.10205609252E+01 0.  0.
     999903    2    3    3    0    0 -0.25659442518E-01  0.21827739481E-01 -0.12226577009E+00  0.12841415637E+00  0.20159856629E-01 0.  0.
         14    1    1    2    0    0 -0.14523947372E-02  0.12362002269E-01 -0.19468651757E-01  0.23107508559E-01  0.00000000000E+00 0.  1.
     999901    1    3    3    0    0  0.27111837255E-01 -0.34189741751E-01  0.14173442185E+00  0.89240833507E+00  0.88000000000E+00 0.  1.
        -11    1    4    4    0    0 -0.14278389544E-01  0.21496492894E-01 -0.63358019050E-01  0.68413970165E-01  0.51100000000E-03 0.  1.
         11    1    4    4    0    0 -0.11381052974E-01  0.33124658715E-03 -0.58907751043E-01  0.60000186209E-01  0.51100000000E-03 0. -1.
</event>
<event>
 8    1  0.1166736E+005  0.1043930E+01  0.7957747E-01            NaN
         13   -1    0    0    0    0  0.00000000000E+00  0.00000000000E+00  0.74505805969E-08  0.10566000000E+00  0.10566000000E+00 0. -1.
     999900   -1    0    0    0    0 -0.00000000000E+00 -0.00000000000E+00 -0.74505805969E-08  0.93827000000E+00  0.93827000000E+00 0. -1.
     999902    2    1    2    0    0 -0.11337362339E-01 -0.40095754536E-02 -0.20665618789E-01  0.10200201635E+01  0.10197398951E+01 0.  0.
     999903    2    3    3    0    0 -0.83669831115E-01 -0.21769569676E-01 -0.99558360058E-01  0.13335705498E+00  0.19941972148E-01 0.  0.
         14    1    1    2    0    0  0.11337362339E-01  0.40095754536E-02  0.20665618789E-01  0.23909836471E-01  0.00000000000E+00 0. -1.
     999901    1    3    3    0    0  0.72332468776E-01  0.17759994222E-01  0.78892741269E-01  0.88666310855E+00  0.88000000000E+00 0.  1.
        -11    1    4    4    0    0 -0.52475152614E-01 -0.23453848592E-01 -0.64805041875E-01  0.86623779813E-01  0.51100000000E-03 0. -1.
         11    1    4    4    0    0 -0.31194678501E-01  0.16842789158E-02 -0.34753318183E-01  0.46733275169E-01  0.51100000000E-03 0.  1.
</event>
<event>
 8    1  0.1166736E+005  0.1043930E+01  0.7957747E-01            NaN
         13   -1    0    0    0    0  0.00000000000E+00  0.00000000000E+00  0.74505805969E-08  0.10566000000E+00  0.10566000000E+00 0. -1.
     999900   -1    0    0    0    0 -0.00000000000E+00 -0.00000000000E+00 -0.74505805969E-08  0.93827000000E+00  0.93827000000E+00 0. -1.
     999902    2    1    2    0    0 -0.12061537872E-01 -0.20086470926E-01 -0.69057228572E-02  0.10195038661E+01  0.10192112131E+01 0.  0.
     999903    2    3    3    0    0  0.78425530638E-01  0.55689250296E-01  0.77613609895E-01  0.12761071827E+00  0.31761085043E-01 0.  0.
         14    1    1    2    0    0  0.12061537872E-01  0.20086470926E-01  0.69057228572E-02  0.24426133920E-01  0.00000000000E+00 0. -1.
     999901    1    3    3    0    0 -0.90487068510E-01 -0.75775721221E-01 -0.84519332753E-01  0.89189314781E+00  0.88000000000E+00 0. -1.
        -11    1    4    4    0    0  0.61882075541E-01  0.44404205539E-01  0.42597440596E-01  0.87269283308E-01  0.51100000000E-03 0.  1.
         11    1    4    4    0    0  0.16543455097E-01  0.11285044756E-01  0.35016169299E-01  0.40341434966E-01  0.51100000000E-03 0. -1.
</event>
<event>
 8    1  0.1166736E+005  0.1043930E+01  0.7957747E-01            NaN
         13   -1    0    0    0    0  0.00000000000E+00  0.00000000000E+00  0.74505805969E-08  0.10566000000E+00  0.10566000000E+00 0. -1.
     999900   -1    0    0    0    0 -0.00000000000E+00 -0.00000000000E+00 -0.74505805969E-08  0.93827000000E+00  0.93827000000E+00 0. -1.
     999902    2    1    2    0    0 -0.17251516509E-01  0.53865852336E-02 -0.14178147085E-01  0.10209593671E+01  0.10207009255E+01 0.  0.
     999903    2    3    3    0    0 -0.75208021791E-02 -0.75502212989E-01 -0.10662958339E+00  0.13237343845E+00  0.19892524251E-01 0.  0.
         14    1    1    2    0    0  0.17251516509E-01 -0.53865852336E-02  0.14178147085E-01  0.22970632928E-01  0.00000000000E+00 0. -1.
     999901    1    3    3    0    0 -0.97307143297E-02  0.80888798222E-01  0.92451436301E-01  0.88858592863E+00  0.88000000000E+00 0.  1.
        -11    1    4    4    0    0  0.88271073788E-03 -0.64781564324E-01 -0.89189827468E-01  0.11023845381E+00  0.51100000000E-03 0. -1.
         11    1    4    4    0    0 -0.84035129169E-02 -0.10720648664E-01 -0.17439755918E-01  0.22134984631E-01  0.51100000000E-03 0.  1.
</event>
<event>
 8    1  0.1166736E+005  0.1043930E+01  0.7957747E-01            NaN
         13   -1    0    0    0    0  0.00000000000E+00  0.00000000000E+00  0.74505805969E-08  0.10566000000E+00  0.10566000000E+00 0. -1.
     999900   -1    0    0    0    0 -0.00000000000E+00 -0.00000000000E+00 -0.74505805969E-08  0.93827000000E+00  0.93827000000E+00 0.  1.
     999902    2    1    2    0    0  0.10446169850E-01 -0.32047856041E-02 -0.20999688755E-01  0.10202576524E+01  0.10199829887E+01 0.  0.
     999903    2    3    3    0    0  0.11038168581E+00 -0.58599393442E-01 -0.39667824034E-01  0.13267432150E+00  0.20271503350E-01 0.  0.
         14    1    1    2    0    0 -0.10446169850E-01  0.32047856041E-02  0.20999688755E-01  0.23672347647E-01  0.00000000000E+00 0. -1.
     999901    1    3    3    0    0 -0.99935515962E-01  0.55394607838E-01  0.18668135279E-01  0.88758333085E+00  0.88000000000E+00 0.  1.
        -11    1    4    4    0    0  0.55038724409E-01 -0.30171081374E-01 -0.93473920649E-02  0.63460146511E-01  0.51100000000E-03 0. -1.
         11    1    4    4    0    0  0.55342961404E-01 -0.28428312068E-01 -0.30320431969E-01  0.69214174992E-01  0.51100000000E-03 0.  1.
</event>
<event>
 8    1  0.1166736E+005  0.1043930E+01  0.7957747E-01            NaN
         13   -1    0    0    0    0  0.00000000000E+00  0.00000000000E+00  0.74505805969E-08  0.10566000000E+00  0.10566000000E+00 0. -1.
     999900   -1    0    0    0    0 -0.00000000000E+00 -0.00000000000E+00 -0.74505805969E-08  0.93827000000E+00  0.93827000000E+00 0. -1.
     999902    2    1    2    0    0 -0.26081425417E-01 -0.10346885760E-01 -0.46587065941E-02  0.10154870335E+01  0.10150886231E+01 0.  0.
     999903    2    3    3    0    0 -0.44839049523E-01  0.91156703611E-01 -0.72606941649E-01  0.12685224362E+00  0.22352600767E-01 0.  0.
         14    1    1    2    0    0  0.26081425417E-01  0.10346885760E-01  0.46587065941E-02  0.28442966509E-01  0.00000000000E+00 0. -1.
     999901    1    3    3    0    0  0.18757624106E-01 -0.10150358937E+00  0.67948235055E-01  0.88863478987E+00  0.88000000000E+00 0.  1.
        -11    1    4    4    0    0 -0.16874337409E-01  0.42788367191E-01 -0.45689413316E-01  0.64833411448E-01  0.51100000000E-03 0. -1.
         11    1    4    4    0    0 -0.27964712115E-01  0.48368336420E-01 -0.26917528333E-01  0.62018832175E-01  0.51100000000E-03 0.  1.
</event>
<event>
 8    1  0.1166736E+005  0.1043930E+01  0.7957747E-01            NaN
         13   -1    0    0    0    0  0.00000000000E+00  0.00000000000E+00  0.74505805969E-08  0.10566000000E+00  0.10566000000E+00 0.  1.
     999900   -1    0    0    0    0 -0.00000000000E+00 -0.00000000000E+00 -0.74505805969E-08  0.93827000000E+00  0.93827000000E+00 0. -1.
     999902    2    1    2    0    0  0.14975236842E-01 -0.25252735933E-02 -0.18363568020E-01  0.10201002842E+01  0.10198219131E+01 0.  0.
     999903    2    3    3    0    0  0.10523249914E+00 -0.64127128963E-01 -0.46942679641E-01  0.13288107362E+00  0.16358392676E-01 0.  0.
         14    1    1    2    0    0 -0.14975236842E-01  0.25252735933E-02  0.18363568020E-01  0.23829715810E-01  0.00000000000E+00 0.  1.
     999901    1    3    3    0    0 -0.90257262296E-01  0.61601855370E-01  0.28579111621E-01  0.88721921057E+00  0.88000000000E+00 0.  1.
        -11    1    4    4    0    0  0.70194213177E-01 -0.33587599292E-01 -0.28456514862E-01  0.82857641463E-01  0.51100000000E-03 0.  1.
         11    1    4    4    0    0  0.35038285960E-01 -0.30539529671E-01 -0.18486164778E-01  0.50023432157E-01  0.51100000000E-03 0. -1.
</event>
<event>
 8    1  0.1166736E+005  0.1043930E+01  0.7957747E-01            NaN
         13   -1    0    0    0    0  0.00000000000E+00  0.00000000000E+00  0.74505805969E-08  0.10566000000E+00  0.10566000000E+00 0.  1.
     999900   -1    0    0    0    0 -0.00000000000E+00 -0.00000000000E+00 -0.74505805969E-08  0.93827000000E+00  0.93827000000E+00 0.  1.
     999902    2    1    2    0    0 -0.11731635277E-01  0.72845574501E-02  0.26787411262E-01  0.10137926238E+01  0.10133445725E+01 0.  0.
     999903    2    3    3    0    0 -0.43510844671E-01  0.10595834756E+00 -0.45386018502E-01  0.12477325449E+00  0.19700490802E-01 0.  0.
         14    1    1    2    0    0  0.11731635277E-01 -0.72845574501E-02 -0.26787411262E-01  0.30137376223E-01  0.00000000000E+00 0. -1.
     999901    1    3    3    0    0  0.31779209394E-01 -0.98673790113E-01  0.72173429764E-01  0.88901936929E+00  0.88000000000E+00 0.  1.
        -11    1    4    4    0    0 -0.40911013390E-01  0.86457258567E-01 -0.43263535274E-01  0.10497887016E+00  0.51100000000E-03 0. -1.
         11    1    4    4    0    0 -0.25998312804E-02  0.19501088996E-01 -0.21224832286E-02  0.19794384324E-01  0.51100000000E-03 0.  1.
</event>
<event>
 8    1  0.1166736E+005  0.1043930E+01  0.7957747E-01            NaN
         13   -1    0    0    0    0  0.00000000000E+00  0.00000000000E+00  0.74505805969E-08  0.10566000000E+00  0.10566000000E+00 0.  1.
     999900   -1    0    0    0    0 -0.00000000000E+00 -0.00000000000E+00 -0.74505805969E-08  0.93827000000E+00  0.93827000000E+00 0.  1.
     999902    2    1    2    0    0  0.13534428096E-01 -0.20222201262E-01  0.26741978682E-02  0.10194500183E+01  0.10191560579E+01 0.  0.
     999903    2    3    3    0    0  0.11286878103E+00  0.16243494054E-01  0.62033569873E-01  0.13112541796E+00  0.18506718064E-01 0.  0.
         14    1    1    2    0    0 -0.13534428096E-01  0.20222201262E-01 -0.26741978682E-02  0.24479981658E-01  0.00000000000E+00 0.  1.
     999901    1    3    3    0    0 -0.99334352930E-01 -0.36465695316E-01 -0.59359372005E-01  0.88832460039E+00  0.88000000000E+00 0.  1.
        -11    1    4    4    0    0  0.68023384387E-01  0.72663423793E-03  0.38186509709E-01  0.78013969682E-01  0.51100000000E-03 0. -1.
         11    1    4    4    0    0  0.44845396639E-01  0.15516859817E-01  0.23847060163E-01  0.53111448274E-01  0.51100000000E-03 0.  1.
</event>
<event>
 8    1  0.1166736E+005  0.1043930E+01  0.7957747E-01            NaN
         13   -1    0    0    0    0  0.00000000000E+00  0.00000000000E+00  0.74505805969E-08  0.10566000000E+00  0.10566000000E+00 0.  1.
     999900   -1    0    0    0    0 -0.00000000000E+00 -0.00000000000E+00 -0.74505805969E-08  0.93827000000E+00  0.93827000000E+00 0. -1.
     999902    2    1    2    0    0 -0.17711855699E-01 -0.81967909337E-02 -0.11220950767E-01  0.10214176267E+01  0.10211695066E+01 0.  0.
     999903    2    3    3    0    0  0.81574680983E-01  0.84522093323E-01 -0.51469472554E-01  0.13008460739E+00  0.21782691258E-01 0.  0.
         14    1    1    2    0    0  0.17711855699E-01  0.81967909337E-02  0.11220950767E-01  0.22512373265E-01  0.00000000000E+00 0.  1.
     999901    1    3    3    0    0 -0.99286536682E-01 -0.92718884256E-01  0.40248521787E-01  0.89133301934E+00  0.88000000000E+00 0.  1.
        -11    1    4    4    0    0  0.44616856975E-01  0.61293797593E-01 -0.32815204384E-01  0.82611695960E-01  0.51100000000E-03 0. -1.
         11    1    4    4    0    0  0.36957824008E-01  0.23228295730E-01 -0.18654268170E-01  0.47472911433E-01  0.51100000000E-03 0.  1.
</event>
<event>
 8    1  0.1166736E+005  0.1043930E+01  0.7957747E-01            NaN
         13   -1    0    0    0    0  0.00000000000E+00  0.00000000000E+00  0.74505805969E-08  0.10566000000E+00  0.10566000000E+00 0. -1.
     999900   -1    0    0    0    0 -0.00000000000E+00 -0.00000000000E+00 -0.74505805969E-08  0.93827000000E+00  0.93827000000E+00 0.  1.
     999902    2    1    2    0    0  0.22629178488E-01  0.74175640741E-03 -0.52551207154E-02  0.10206868028E+01  0.10204221201E+01 0.  0.
     999903    2    3    3    0    0 -0.21239645886E-01 -0.10566488714E+00  0.70040527785E-01  0.13000376030E+00  0.19470778817E-01 0.  0.
         14    1    1    2    0    0 -0.22629178488E-01 -0.74175640741E-03  0.52551207154E-02  0.23243197184E-01  0.00000000000E+00 0. -1.
     999901    1    3    3    0    0  0.43868824373E-01  0.10640664355E+00 -0.75295648500E-01  0.89068304252E+00  0.88000000000E+00 0.  1.
        -11    1    4    4    0    0 -0.20093235287E-01 -0.57502815902E-01  0.44793081816E-01  0.75610801084E-01  0.51100000000E-03 0.  1.
         11    1    4    4    0    0 -0.11464105992E-02 -0.48162071239E-01  0.25247445969E-01  0.54392959216E-01  0.51100000000E-03 0. -1.
</event>
<event>
 8    1  0.1166736E+005  0.1043930E+01  0.7957747E-01            NaN
         13   -1    0    0    0    0  0.00000000000E+00  0.00000000000E+00  0.74505805969E-08  0.10566000000E+00  0.10566000000E+00 0. -1.
     999900   -1    0    0    0    0 -0.00000000000E+00 -0.00000000000E+00 -0.74505805969E-08  0.93827000000E+00  0.93827000000E+00 0.  1.
     999902    2    1    2    0    0  0.24180586188E-01  0.97904806163E-02  0.47845696007E-02  0.10174074367E+01  0.10170616726E+01 0.  0.
     999903    2    3    3    0    0 -0.11251096474E+00 -0.84065458176E-03 -0.50475544099E-01  0.12507830384E+00  0.20913575789E-01 0.  0.
         14    1    1    2    0    0 -0.24180586188E-01 -0.97904806163E-02 -0.47845696007E-02  0.26522563326E-01  0.00000000000E+00 0. -1.
     999901    1    3    3    0    0  0.13669155093E+00  0.10631135198E-01  0.55260113700E-01  0.89232913283E+00  0.88000000000E+00 0. -1.
        -11    1    4    4    0    0 -0.46993004238E-01  0.16600364327E-02 -0.10167514700E-01  0.48111720448E-01  0.51100000000E-03 0.  1.
         11    1    4    4    0    0 -0.65517960506E-01 -0.25006910145E-02 -0.40308029399E-01  0.76966583395E-01  0.51100000000E-03 0. -1.
</event>
<event>
 8    1  0.1166736E+005  0.1043930E+01  0.7957747E-01            NaN
         13   -1    0    0    0    0  0.00000000000E+00  0.00000000000E+00  0.74505805969E-08  0.10566000000E+00  0.10566000000E+00 0. -1.
     999900   -1    0    0    0    0 -0.00000000000E+00 -0.00000000000E+00 -0.74505805969E-08  0.93827000000E+00  0.93827000000E+00 0.  1.
     999902    2    1    2    0    0 -0.21099726680E-01  0.87678725060E-02  0.34364561002E-02  0.10208240855E+01  0.10205625558E+01 0.  0.
     999903    2    3    3    0    0  0.17396234390E-01  0.29598995186E-01 -0.12402507063E+00  0.13056439559E+00  0.22047987711E-01 0.  0.
         14    1    1    2    0    0  0.21099726680E-01 -0.87678725060E-02 -0.34364561002E-02  0.23105914498E-01  0.00000000000E+00 0.  1.
     999901    1    3    3    0    0 -0.38495961070E-01 -0.20831122680E-01  0.12746152673E+00  0.89025968992E+00  0.88000000000E+00 0. -1.
        -11    1    4    4    0    0  0.58982751796E-02 -0.26318809105E-02 -0.23285150291E-01  0.24169728842E-01  0.51100000000E-03 0.  1.
         11    1    4    4    0    0  0.11497959210E-01  0.32230876096E-01 -0.10073992034E+00  0.10639466674E+00  0.51100000000E-03 0. -1.
</event>
<event>
 8    1  0.1166736E+005  0.1043930E+01  0.7957747E-01            NaN
         13   -1    0    0    0    0  0.00000000000E+00  0.00000000000E+00  0.74505805969E-08  0.10566000000E+00  0.10566000000E+00 0. -1.
     999900   -1    0    0    0    0 -0.00000000000E+00 -0.00000000000E+00 -0.74505805969E-08  0.93827000000E+00  0.93827000000E+00 0. -1.
     999902    2    1    2    0    0 -0.86023546525E-02  0.21902896857E-01  0.34716231980E-03  0.10203958138E+01  0.10201243841E+01 0.  0.
     999903    2    3    3    0    0 -0.11942520175E+00  0.27928732087E-01 -0.44847665146E-01  0.13227387033E+00  0.21039743657E-01 0.  0.
         14    1    1    2    0    0  0.86023546525E-02 -0.21902896857E-01 -0.34716231980E-03  0.23534186155E-01  0.00000000000E+00 0. -1.
     999901    1    3    3    0    0  0.11082284710E+00 -0.60258352294E-02  0.45194827466E-01  0.88812194352E+00  0.88000000000E+00 0. -1.
        -11    1    4    4    0    0 -0.56620414735E-01  0.30237657672E-02 -0.23923248359E-01  0.61543459906E-01  0.51100000000E-03 0. -1.
         11    1    4    4    0    0 -0.62804787015E-01  0.24904966320E-01 -0.20924416787E-01  0.70730410421E-01  0.51100000000E-03 0.  1.
</event>
<event>
 8    1  0.1166736E+005  0.1043930E+01  0.7957747E-01            NaN
         13   -1    0    0    0    0  0.00000000000E+00  0.00000000000E+00  0.74505805969E-08  0.10566000000E+00  0.10566000000E+00 0.  1.
     999900   -1    0    0    0    0 -0.00000000000E+00 -0.00000000000E+00 -0.74505805969E-08  0.93827000000E+00  0.93827000000E+00 0. -1.
     999902    2    1    2    0    0 -0.18711214021E-01 -0.53910756020E-02  0.96797871215E-02  0.10221843911E+01  0.10219530606E+01 0.  0.
     999903    2    3    3    0    0 -0.80492114182E-01  0.10133715523E+00  0.25752762325E-01  0.13344025731E+00  0.19872041344E-01 0.  0.
         14    1    1    2    0    0  0.18711214021E-01  0.53910756020E-02 -0.96797871215E-02  0.21745608867E-01  0.00000000000E+00 0. -1.
     999901    1    3    3    0    0  0.61780900161E-01 -0.10672823083E+00 -0.16072975204E-01  0.88874413383E+00  0.88000000000E+00 0. -1.
        -11    1    4    4    0    0 -0.71159370639E-01  0.79065925715E-01  0.25018408062E-01  0.10927606555E+00  0.51100000000E-03 0. -1.
         11    1    4    4    0    0 -0.93327435430E-02  0.22271229513E-01  0.73435426323E-03  0.24164191756E-01  0.51100000000E-03 0.  1.
</event>
<event>
 8    1  0.1166736E+005  0.1043930E+01  0.7957747E-01            NaN
         13   -1    0    0    0    0  0.00000000000E+00  0.00000000000E+00  0.74505805969E-08  0.10566000000E+00  0.10566000000E+00 0.  1.
     999900   -1    0    0    0    0 -0.00000000000E+00 -0.00000000000E+00 -0.74505805969E-08  0.93827000000E+00  0.93827000000E+00 0. -1.
     999902    2    1    2    0    0 -0.14133956026E-01  0.17401689052E-01 -0.67764249183E-02  0.10205097645E+01  0.10202409873E+01 0.  0.
     999903    2    3    3    0    0  0.88924893905E-01  0.67614869230E-01 -0.65697833303E-01  0.13111996114E+00  0.19920632788E-01 0.  0.
         14    1    1    2    0    0  0.14133956026E-01 -0.17401689052E-01  0.67764249183E-02  0.23420235471E-01  0.00000000000E+00 0.  1.
     999901    1    3    3    0    0 -0.10305884993E+00 -0.50213180177E-01  0.58921408385E-01  0.88938980339E+00  0.88000000000E+00 0. -1.
        -11    1    4    4    0    0  0.10786600539E-01  0.21563276478E-02 -0.10426220954E-01  0.15164686100E-01  0.51100000000E-03 0.  1.
         11    1    4    4    0    0  0.78138293366E-01  0.65458541582E-01 -0.55271612349E-01  0.11595527504E+00  0.51100000000E-03 0. -1.
</event>
<event>
 8    1  0.1166736E+005  0.1043930E+01  0.7957747E-01            NaN
         13   -1    0    0    0    0  0.00000000000E+00  0.00000000000E+00  0.74505805969E-08  0.10566000000E+00  0.10566000000E+00 0. -1.
     999900   -1    0    0    0    0 -0.00000000000E+00 -0.00000000000E+00 -0.74505805969E-08  0.93827000000E+00  0.93827000000E+00 0. -1.
     999902    2    1    2    0    0 -0.14583511607E-01 -0.15966943596E-01 -0.11346432010E-01  0.10195094427E+01  0.10192169250E+01 0.  0.
     999903    2    3    3    0    0 -0.89415471408E-01  0.44624741054E-01  0.80064209237E-01  0.12955041007E+00  0.19660546986E-01 0.  0.
         14    1    1    2    0    0  0.14583511607E-01  0.15966943596E-01  0.11346432010E-01  0.24420557281E-01  0.00000000000E+00 0.  1.
     999901    1    3    3    0    0  0.74831959802E-01 -0.60591684650E-01 -0.91410641246E-01  0.88995903265E+00  0.88000000000E+00 0. -1.
        -11    1    4    4    0    0 -0.82193891371E-01  0.46232474925E-01  0.72458394593E-01  0.11892753081E+00  0.51100000000E-03 0.  1.
         11    1    4    4    0    0 -0.72215800371E-02 -0.16077338707E-02  0.76058146441E-02  0.10622879263E-01  0.51100000000E-03 0. -1.
</event>
<event>
 8    1  0.1166736E+005  0.1043930E+01  0.7957747E-01            NaN
         13   -1    0    0    0    0  0.00000000000E+00  0.00000000000E+00  0.74505805969E-08  0.10566000000E+00  0.10566000000E+00 0.  1.
     999900   -1    0    0    0    0 -0.00000000000E+00 -0.00000000000E+00 -0.74505805969E-08  0.93827000000E+00  0.93827000000E+00 0. -1.
     999902    2    1    2    0    0 -0.64553150003E-02 -0.14773775126E-01 -0.15465597011E-01  0.10215890015E+01  0.10213446861E+01 0.  0.
     999903    2    3    3    0    0 -0.92331993911E-01  0.87398395342E-01  0.22452082074E-01  0.13071768263E+00  0.20477791720E-01 0.  0.
         14    1    1    2    0    0  0.64553150003E-02  0.14773775126E-01  0.15465597011E-01  0.22340998504E-01  0.00000000000E+00 0.  1.
     999901    1    3    3    0    0  0.85876678911E-01 -0.10217217047E+00 -0.37917679085E-01  0.89087131887E+00  0.88000000000E+00 0. -1.
        -11    1    4    4    0    0 -0.63331299230E-01  0.49317706202E-01  0.20313720607E-01  0.82800953939E-01  0.51100000000E-03 0. -1.
         11    1    4    4    0    0 -0.29000694681E-01  0.38080689140E-01  0.21383614662E-02  0.47916728687E-01  0.51100000000E-03 0.  1.
</event>
<event>
 8    1  0.1166736E+005  0.1043930E+01  0.7957747E-01            NaN
         13   -1    0    0    0    0  0.00000000000E+00  0.00000000000E+00  0.74505805969E-08  0.10566000000E+00  0.10566000000E+00 0. -1.
     999900   -1    0    0    0    0 -0.00000000000E+00 -0.00000000000E+00 -0.74505805969E-08  0.93827000000E+00  0.93827000000E+00 0.  1.
     999902    2    1    2    0    0  0.22691435330E-01 -0.71335425116E-02  0.24095842355E-02  0.10200219519E+01  0.10197417260E+01 0.  0.
     999903    2    3    3    0    0 -0.50948744403E-01  0.11617930495E+00 -0.48764402435E-02  0.12834823326E+00  0.18870184303E-01 0.  0.
         14    1    1    2    0    0 -0.22691435330E-01  0.71335425116E-02 -0.24095842355E-02  0.23908048066E-01  0.00000000000E+00 0. -1.
     999901    1    3    3    0    0  0.73640179733E-01 -0.12331284747E+00  0.72860244790E-02  0.89167371867E+00  0.88000000000E+00 0. -1.
        -11    1    4    4    0    0 -0.35232139213E-01  0.87556778780E-01 -0.11331652290E-01  0.95058721896E-01  0.51100000000E-03 0.  1.
         11    1    4    4    0    0 -0.15716605190E-01  0.28622526174E-01  0.64552120466E-02  0.33289511364E-01  0.51100000000E-03 0. -1.
</event>
<event>
 8    1  0.1166736E+005  0.1043930E+01  0.7957747E-01            NaN
         13   -1    0    0    0    0  0.00000000000E+00  0.00000000000E+00  0.74505805969E-08  0.10566000000E+00  0.10566000000E+00 0. -1.
     999900   -1    0    0    0    0 -0.00000000000E+00 -0.00000000000E+00 -0.74505805969E-08  0.93827000000E+00  0.93827000000E+00 0. -1.
     999902    2    1    2    0    0 -0.15270429435E-01  0.21006605083E-01  0.76664551517E-02  0.10168516321E+01  0.10164910249E+01 0.  0.
     999903    2    3    3    0    0 -0.11252066953E+00 -0.38934653820E-01 -0.42808446207E-01  0.12803315831E+00  0.19573405961E-01 0.  0.
         14    1    1    2    0    0  0.15270429435E-01 -0.21006605083E-01 -0.76664551517E-02  0.27078367876E-01  0.00000000000E+00 0. -1.
     999901    1    3    3    0    0  0.97250240099E-01  0.59941258903E-01  0.50474901358E-01  0.88881847381E+00  0.88000000000E+00 0.  1.
        -11    1    4    4    0    0 -0.78210596490E-01 -0.27514865188E-01 -0.20040072087E-01  0.85298480760E-01  0.51100000000E-03 0. -1.
         11    1    4    4    0    0 -0.34310073043E-01 -0.11419788632E-01 -0.22768374119E-01  0.42734677554E-01  0.51100000000E-03 0.  1.
</event>
<event>
 8    1  0.1166736E+005  0.1043930E+01  0.7957747E-01            NaN
         13   -1    0    0    0    0  0.00000000000E+00  0.00000000000E+00  0.74505805969E-08  0.10566000000E+00  0.10566000000E+00 0. -1.
     999900   -1    0    0    0    0 -0.00000000000E+00 -0.00000000000E+00 -0.74505805969E-08  0.93827000000E+00  0.93827000000E+00 0.  1.
     999902    2    1    2    0    0  0.20343875810E-01  0.34962234800E-02  0.10671141058E-01  0.10206927430E+01  0.10204281971E+01 0.  0.
     999903    2    3    3    0    0 -0.11566977515E+00  0.32777015109E-01 -0.35607428564E-01  0.12856114731E+00  0.28394542197E-01 0.  0.
         14    1    1    2    0    0 -0.20343875810E-01 -0.34962234800E-02 -0.10671141058E-01  0.23237257004E-01  0.00000000000E+00 0.  1.
     999901    1    3    3    0    0  0.13601365096E+00 -0.29280791629E-01  0.46278569622E-01  0.89213159568E+00  0.88000000000E+00 0.  1.
        -11    1    4    4    0    0 -0.64844704957E-01  0.12627651301E-01 -0.32937237287E-01  0.73820160251E-01  0.51100000000E-03 0.  1.
         11    1    4    4    0    0 -0.50825070195E-01  0.20149363808E-01 -0.26701912769E-02  0.54740987063E-01  0.51100000000E-03 0. -1.
</event>
<event>
 8    1  0.1166736E+005  0.1043930E+01  0.7957747E-01            NaN
         13   -1    0    0    0    0  0.00000000000E+00  0.00000000000E+00  0.74505805969E-08  0.10566000000E+00  0.10566000000E+00 0.  1.
     999900   -1    0    0    0    0 -0.00000000000E+00 -0.00000000000E+00 -0.74505805969E-08  0.93827000000E+00  0.93827000000E+00 0. -1.
     999902    2    1    2    0    0 -0.17690094292E-01  0.83943004274E-02  0.13288613010E-01  0.10202658721E+01  0.10199914013E+01 0.  0.
     999903    2    3    3    0    0  0.37987651865E-01  0.74360496067E-01 -0.96901327508E-01  0.12920281403E+00  0.18192163444E-01 0.  0.
         14    1    1    2    0    0  0.17690094292E-01 -0.83943004274E-02 -0.13288613010E-01  0.23664127946E-01  0.00000000000E+00 0. -1.
     999901    1    3    3    0    0 -0.55677746157E-01 -0.65966195640E-01  0.11018994052E+00  0.89106305802E+00  0.88000000000E+00 0.  1.
        -11    1    4    4    0    0  0.16902924912E-01  0.22027630284E-01 -0.42889608860E-01  0.51095058819E-01  0.51100000000E-03 0. -1.
         11    1    4    4    0    0  0.21084726953E-01  0.52332865784E-01 -0.54011718648E-01  0.78107755211E-01  0.51100000000E-03 0.  1.
</event>
<event>
 8    1  0.1166736E+005  0.1043930E+01  0.7957747E-01            NaN
         13   -1    0    0    0    0  0.00000000000E+00  0.00000000000E+00  0.74505805969E-08  0.10566000000E+00  0.10566000000E+00 0. -1.
     999900   -1    0    0    0    0 -0.00000000000E+00 -0.00000000000E+00 -0.74505805969E-08  0.93827000000E+00  0.93827000000E+00 0. -1.
     999902    2    1    2    0    0 -0.90980307090E-02 -0.21971627840E-01  0.32294383582E-02  0.10199309195E+01  0.10196485300E+01 0.  0.
     999903    2    3    3    0    0  0.88278378456E-01  0.86195053845E-01 -0.25184749357E-01  0.12752430693E+00  0.20137473739E-01 0.  0.
         14    1    1    2    0    0  0.90980307090E-02  0.21971627840E-01 -0.32294383582E-02  0.23999080500E-01  0.00000000000E+00 0.  1.
     999901    1    3    3    0    0 -0.97376409165E-01 -0.10816668169E+00  0.28414187715E-01  0.89240661257E+00  0.88000000000E+00 0. -1.
        -11    1    4    4    0    0  0.33794044768E-01  0.36723776625E-01 -0.19932088187E-01  0.53742185402E-01  0.51100000000E-03 0.  1.
         11    1    4    4    0    0  0.54484333689E-01  0.49471277221E-01 -0.52526611692E-02  0.73782121531E-01  0.51100000000E-03 0. -1.
</event>
<event>
 8    1  0.1166736E+005  0.1043930E+01  0.7957747E-01            NaN
         13   -1    0    0    0    0  0.00000000000E+00  0.00000000000E+00  0.74505805969E-08  0.10566000000E+00  0.10566000000E+00 0. -1.
     999900   -1    0    0    0    0 -0.00000000000E+00 -0.00000000000E+00 -0.74505805969E-08  0.93827000000E+00  0.93827000000E+00 0.  1.
     999902    2    1    2    0    0  0.10390478342E-01 -0.21280255818E-01 -0.51315174250E-04  0.10202484890E+01  0.10199736102E+01 0.  0.
     999903    2    3    3    0    0 -0.10728649063E+00  0.62217723503E-01  0.26018637332E-01  0.12811653468E+00  0.18853137136E-01 0.  0.
         14    1    1    2    0    0 -0.10390478342E-01  0.21280255818E-01  0.51315174250E-04  0.23681510955E-01  0.00000000000E+00 0.  1.
     999901    1    3    3    0    0  0.11767696897E+00 -0.83497979321E-01 -0.26069952506E-01  0.89213195437E+00  0.88000000000E+00 0.  1.
        -11    1    4    4    0    0 -0.24194577851E-01  0.21120526926E-01  0.11648233473E-02  0.32141440376E-01  0.51100000000E-03 0. -1.
         11    1    4    4    0    0 -0.83091912780E-01  0.41097196576E-01  0.24853813985E-01  0.95975094303E-01  0.51100000000E-03 0.  1.
</event>
<event>
 8    1  0.1166736E+005  0.1043930E+01  0.7957747E-01            NaN
         13   -1    0    0    0    0  0.00000000000E+00  0.00000000000E+00  0.74505805969E-08  0.10566000000E+00  0.10566000000E+00 0.  1.
     999900   -1    0    0    0    0 -0.00000000000E+00 -0.00000000000E+00 -0.74505805969E-08  0.93827000000E+00  0.93827000000E+00 0.  1.
     999902    2    1    2    0    0 -0.98608774897E-02  0.21033518945E-01  0.41497765898E-02  0.10203319817E+01  0.10200590602E+01 0.  0.
     999903    2    3    3    0    0  0.24130005362E-01  0.11049765427E+00 -0.65991716203E-01  0.13236855863E+00  0.19353034564E-01 0.  0.
         14    1    1    2    0    0  0.98608774897E-02 -0.21033518945E-01 -0.41497765898E-02  0.23598018345E-01  0.00000000000E+00 0. -1.
     999901    1    3    3    0    0 -0.33990882852E-01 -0.89464135326E-01  0.70141492793E-01  0.88796342303E+00  0.88000000000E+00 0. -1.
        -11    1    4    4    0    0  0.15685235821E-01  0.31436209123E-01 -0.17737876533E-01  0.39359309594E-01  0.51100000000E-03 0. -1.
         11    1    4    4    0    0  0.84447695417E-02  0.79061445148E-01 -0.48253839670E-01  0.93009249032E-01  0.51100000000E-03 0.  1.
</event>
<event>
 8    1  0.1166736E+005  0.1043930E+01  0.7957747E-01            NaN
         13   -1    0    0    0    0  0.00000000000E+00  0.00000000000E+00  0.74505805969E-08  0.10566000000E+00  0.10566000000E+00 0.  1.
     999900   -1    0    0    0    0 -0.00000000000E+00 -0.00000000000E+00 -0.74505805969E-08  0.93827000000E+00  0.93827000000E+00 0. -1.
     999902    2    1    2    0    0 -0.17359422794E-01  0.13176581186E-01  0.78049066146E-02  0.10207807361E+01  0.10205182129E+01 0.  0.
     999903    2    3    3    0    0  0.11402702060E+00  0.48620113543E-01  0.34072927145E-01  0.12993358289E+00  0.18859870940E-01 0.  0.
         14    1    1    2    0    0  0.17359422794E-01 -0.13176581186E-01 -0.78049066146E-02  0.23149263892E-01  0.00000000000E+00 0. -1.
     999901    1    3    3    0    0 -0.13138644339E+00 -0.35443532357E-01 -0.26268020530E-01  0.89084715322E+00  0.88000000000E+00 0.  1.
        -11    1    4    4    0    0  0.57924158775E-01  0.15157848435E-01  0.12787146687E-01  0.61226961221E-01  0.51100000000E-03 0. -1.
         11    1    4    4    0    0  0.56102861820E-01  0.33462265108E-01  0.21285780458E-01  0.68706621669E-01  0.51100000000E-03 0.  1.
</event>
<event>
 8    1  0.1166736E+005  0.1043930E+01  0.7957747E-01            NaN
         13   -1    0    0    0    0  0.00000000000E+00  0.00000000000E+00  0.74505805969E-08  0.10566000000E+00  0.10566000000E+00 0. -1.
     999900   -1    0    0    0    0 -0.00000000000E+00 -0.00000000000E+00 -0.74505805969E-08  0.93827000000E+00  0.93827000000E+00 0. -1.
     999902    2    1    2    0    0 -0.64961838415E-02  0.20959987857E-01 -0.81338155995E-02  0.10205274264E+01  0.10202590590E+01 0.  0.
     999903    2    3    3    0    0  0.51403626824E-01  0.40867971854E-01  0.11096866816E+00  0.13039590940E+00  0.19404223741E-01 0.  0.
         14    1    1    2    0    0  0.64961838415E-02 -0.20959987857E-01  0.81338155995E-02  0.23402573612E-01  0.00000000000E+00 0. -1.
     999901    1    3    3    0    0 -0.57899810666E-01 -0.19907983997E-01 -0.11910248376E+00  0.89013151699E+00  0.88000000000E+00 0. -1.
        -11    1    4    4    0    0  0.22287342102E-01  0.14998606685E-01  0.28374573244E-01  0.39077632327E-01  0.51100000000E-03 0.  1.
         11    1    4    4    0    0  0.29116284722E-01  0.25869365169E-01  0.82594094921E-01  0.91318277070E-01  0.51100000000E-03 0. -1.
</event>
<event>
 8    1  0.1166736E+005  0.1043930E+01  0.7957747E-01            NaN
         13   -1    0    0    0    0  0.00000000000E+00  0.00000000000E+00  0.74505805969E-08  0.10566000000E+00  0.10566000000E+00 0.  1.
     999900   -1    0    0    0    0 -0.00000000000E+00 -0.00000000000E+00 -0.74505805969E-08  0.93827000000E+00  0.93827000000E+00 0.  1.
     999902    2    1    2    0    0 -0.13059049013E-01  0.18705389664E-01 -0.73279492752E-02  0.10199690066E+01  0.10196875233E+01 0.  0.
     999903    2    3    3    0    0  0.85317509923E-01  0.97188948781E-01  0.61658314731E-02  0.13091349737E+00  0.19379294369E-01 0.  0.
         14    1    1    2    0    0  0.13059049013E-01 -0.18705389664E-01  0.73279492752E-02  0.23960993389E-01  0.00000000000E+00 0.  1.
     999901    1    3    3    0    0 -0.98376558936E-01 -0.78483559117E-01 -0.13493780748E-01  0.88905550924E+00  0.88000000000E+00 0.  1.
        -11    1    4    4    0    0  0.44285572345E-01  0.52340312163E-01 -0.63243596290E-02  0.68854766291E-01  0.51100000000E-03 0. -1.
         11    1    4    4    0    0  0.41031937578E-01  0.44848636618E-01  0.12490191102E-01  0.62058731076E-01  0.51100000000E-03 0.  1.
</event>
<event>
 8    1  0.1166736E+005  0.1043930E+01  0.7957747E-01            NaN
         13   -1    0    0    0    0  0.00000000000E+00  0.00000000000E+00  0.74505805969E-08  0.10566000000E+00  0.10566000000E+00 0. -1.
     999900   -1    0    0    0    0 -0.00000000000E+00 -0.00000000000E+00 -0.74505805969E-08  0.93827000000E+00  0.93827000000E+00 0.  1.
     999902    2    1    2    0    0 -0.54213221679E-02 -0.22909368149E-01 -0.13837368807E-02  0.10203472815E+01  0.10200747180E+01 0.  0.
     999903    2    3    3    0    0  0.11881119799E+00 -0.51134844448E-01  0.84380067965E-02  0.13111904129E+00  0.19751707406E-01 0.  0.
         14    1    1    2    0    0  0.54213221679E-02  0.22909368149E-01  0.13837368807E-02  0.23582718477E-01  0.00000000000E+00 0. -1.
     999901    1    3    3    0    0 -0.12423252016E+00  0.28225476299E-01 -0.98217436773E-02  0.88922824023E+00  0.88000000000E+00 0. -1.
        -11    1    4    4    0    0  0.47700923307E-01 -0.21442207454E-01 -0.62379402787E-02  0.52671808064E-01  0.51100000000E-03 0. -1.
         11    1    4    4    0    0  0.71110274684E-01 -0.29692636993E-01  0.14675947075E-01  0.78447233226E-01  0.51100000000E-03 0.  1.
</event>
<event>
 8    1  0.1166736E+005  0.1043930E+01  0.7957747E-01            NaN
         13   -1    0    0    0    0  0.00000000000E+00  0.00000000000E+00  0.74505805969E-08  0.10566000000E+00  0.10566000000E+00 0.  1.
     999900   -1    0    0    0    0 -0.00000000000E+00 -0.00000000000E+00 -0.74505805969E-08  0.93827000000E+00  0.93827000000E+00 0. -1.
     999902    2    1    2    0    0  0.23904053238E-01 -0.12048550512E-02 -0.12891702352E-01  0.10167444997E+01  0.10163809946E+01 0.  0.
     999903    2    3    3    0    0  0.11732707683E+00  0.35753597184E-01 -0.40148418688E-01  0.13060866524E+00  0.20069012029E-01 0.  0.
         14    1    1    2    0    0 -0.23904053238E-01  0.12048550512E-02  0.12891702352E-01  0.27185500298E-01  0.00000000000E+00 0.  1.
     999901    1    3    3    0    0 -0.93423023593E-01 -0.36958452235E-01  0.27256716336E-01  0.88613583446E+00  0.88000000000E+00 0.  1.
        -11    1    4    4    0    0  0.71415111930E-01  0.16010310848E-01 -0.32366219491E-01  0.80026755217E-01  0.51100000000E-03 0.  1.
         11    1    4    4    0    0  0.45911964902E-01  0.19743286335E-01 -0.77821991963E-02  0.50581910025E-01  0.51100000000E-03 0. -1.
</event>
<event>
 8    1  0.1166736E+005  0.1043930E+01  0.7957747E-01            NaN
         13   -1    0    0    0    0  0.00000000000E+00  0.00000000000E+00  0.74505805969E-08  0.10566000000E+00  0.10566000000E+00 0.  1.
     999900   -1    0    0    0    0 -0.00000000000E+00 -0.00000000000E+00 -0.74505805969E-08  0.93827000000E+00  0.93827000000E+00 0.  1.
     999902    2    1    2    0    0  0.86375155738E-02 -0.21565555193E-01  0.18116319198E-02  0.10206284581E+01  0.10203624295E+01 0.  0.
     999903    2    3    3    0    0 -0.78564818712E-01  0.93208705185E-01  0.34749611016E-01  0.12829315763E+00  0.19781439950E-01 0.  0.
         14    1    1    2    0    0 -0.86375155738E-02  0.21565555193E-01 -0.18116319198E-02  0.23301541930E-01  0.00000000000E+00 0. -1.
     999901    1    3    3    0    0  0.87202334286E-01 -0.11477426038E+00 -0.32937979096E-01  0.89233530044E+00  0.88000000000E+00 0. -1.
        -11    1    4    4    0    0 -0.28161060435E-01  0.31137756790E-01  0.21742380445E-01  0.47282104978E-01  0.51100000000E-03 0.  1.
         11    1    4    4    0    0 -0.50403758278E-01  0.62070948395E-01  0.13007230571E-01  0.81011052649E-01  0.51100000000E-03 0. -1.
</event>
<event>
 8    1  0.1166736E+005  0.1043930E+01  0.7957747E-01            NaN
         13   -1    0    0    0    0  0.00000000000E+00  0.00000000000E+00  0.74505805969E-08  0.10566000000E+00  0.10566000000E+00 0. -1.
     999900   -1    0    0    0    0 -0.00000000000E+00 -0.00000000000E+00 -0.74505805969E-08  0.93827000000E+00  0.93827000000E+00 0.  1.
     999902    2    1    2    0    0 -0.74289714017E-02 -0.22174427896E-01 -0.89407835149E-02  0.10188933773E+01  0.10185857263E+01 0.  0.
     999903    2    3    3    0    0 -0.93410689348E-01  0.77848466428E-01 -0.36902456471E-01  0.12862415373E+00  0.19910826659E-01 0.  0.
         14    1    1    2    0    0  0.74289714017E-02  0.22174427896E-01  0.89407835149E-02  0.25036622745E-01  0.00000000000E+00 0.  1.
     999901    1    3    3    0    0  0.85981717947E-01 -0.10002289432E+00  0.27961672956E-01  0.89026922353E+00  0.88000000000E+00 0.  1.
        -11    1    4    4    0    0 -0.54291678016E-01  0.52419746700E-01 -0.14440396365E-01  0.76838807344E-01  0.51100000000E-03 0. -1.
         11    1    4    4    0    0 -0.39119011332E-01  0.25428719728E-01 -0.22462060106E-01  0.51785346381E-01  0.51100000000E-03 0.  1.
</event>
<event>
 8    1  0.1166736E+005  0.1043930E+01  0.7957747E-01            NaN
         13   -1    0    0    0    0  0.00000000000E+00  0.00000000000E+00  0.74505805969E-08  0.10566000000E+00  0.10566000000E+00 0. -1.
     999900   -1    0    0    0    0 -0.00000000000E+00 -0.00000000000E+00 -0.74505805969E-08  0.93827000000E+00  0.93827000000E+00 0. -1.
     999902    2    1    2    0    0  0.17998780284E-01 -0.15596706271E-01  0.28693922841E-02  0.10199415288E+01  0.10196593919E+01 0.  0.
     999903    2    3    3    0    0  0.82269907928E-01 -0.10273226192E+00  0.70649924758E-02  0.13329560964E+00  0.19888439897E-01 0.  0.
         14    1    1    2    0    0 -0.17998780284E-01  0.15596706271E-01 -0.28693922841E-02  0.23988471196E-01  0.00000000000E+00 0. -1.
     999901    1    3    3    0    0 -0.64271127644E-01  0.87135555648E-01 -0.41956001916E-02  0.88664591916E+00  0.88000000000E+00 0. -1.
        -11    1    4    4    0    0  0.40019828156E-01 -0.52125424616E-01 -0.63263950776E-02  0.66022200302E-01  0.51100000000E-03 0. -1.
         11    1    4    4    0    0  0.42250079772E-01 -0.50606837303E-01  0.13391387553E-01  0.67273409340E-01  0.51100000000E-03 0.  1.
</event>
<event>
 8    1  0.1166736E+005  0.1043930E+01  0.7957747E-01            NaN
         13   -1    0    0    0    0  0.00000000000E+00  0.00000000000E+00  0.74505805969E-08  0.10566000000E+00  0.10566000000E+00 0. -1.
     999900   -1    0    0    0    0 -0.00000000000E+00 -0.00000000000E+00 -0.74505805969E-08  0.93827000000E+00  0.93827000000E+00 0.  1.
     999902    2    1    2    0    0  0.16189662030E-01 -0.34570570586E-02 -0.16793276690E-01  0.10203488520E+01  0.10200763252E+01 0.  0.
     999903    2    3    3    0    0 -0.35174145412E-01 -0.11934163788E+00  0.31496448670E-01  0.12995603172E+00  0.20418052439E-01 0.  0.
         14    1    1    2    0    0 -0.16189662030E-01  0.34570570586E-02  0.16793276690E-01  0.23581148024E-01  0.00000000000E+00 0. -1.
     999901    1    3    3    0    0  0.51363807442E-01  0.11588458082E+00 -0.48289725360E-01  0.89039282025E+00  0.88000000000E+00 0.  1.
        -11    1    4    4    0    0 -0.20890846443E-01 -0.77720907458E-01  0.30105519167E-01  0.85927704069E-01  0.51100000000E-03 0. -1.
         11    1    4    4    0    0 -0.14283298968E-01 -0.41620730418E-01  0.13909295029E-02  0.44028327652E-01  0.51100000000E-03 0.  1.
</event>
<event>
 8    1  0.1166736E+005  0.1043930E+01  0.7957747E-01            NaN
         13   -1    0    0    0    0  0.00000000000E+00  0.00000000000E+00  0.74505805969E-08  0.10566000000E+00  0.10566000000E+00 0. -1.
     999900   -1    0    0    0    0 -0.00000000000E+00 -0.00000000000E+00 -0.74505805969E-08  0.93827000000E+00  0.93827000000E+00 0. -1.
     999902    2    1    2    0    0 -0.20975632391E-01 -0.12054150674E-01 -0.28893453627E-02  0.10195655173E+01  0.10192743576E+01 0.  0.
     999903    2    3    3    0    0 -0.44781644384E-01  0.10831083884E+00 -0.51730396961E-01  0.12971164991E+00  0.20308733801E-01 0.  0.
         14    1    1    2    0    0  0.20975632391E-01  0.12054150674E-01  0.28893453627E-02  0.24364482742E-01  0.00000000000E+00 0. -1.
     999901    1    3    3    0    0  0.23806011993E-01 -0.12036498952E+00  0.48841051598E-01  0.88985386735E+00  0.88000000000E+00 0.  1.
        -11    1    4    4    0    0 -0.36538551479E-01  0.74948569645E-01 -0.44782167936E-01  0.94647015389E-01  0.51100000000E-03 0.  1.
         11    1    4    4    0    0 -0.82430929055E-02  0.33362269197E-01 -0.69482290254E-02  0.35064634523E-01  0.51100000000E-03 0. -1.
</event>
<event>
 8    1  0.1166736E+005  0.1043930E+01  0.7957747E-01            NaN
         13   -1    0    0    0    0  0.00000000000E+00  0.00000000000E+00  0.74505805969E-08  0.10566000000E+00  0.10566000000E+00 0. -1.
     999900   -1    0    0    0    0 -0.00000000000E+00 -0.00000000000E+00 -0.74505805969E-08  0.93827000000E+00  0.93827000000E+00 0. -1.
     999902    2    1    2    0    0 -0.10301856367E-02 -0.23070240537E-01  0.13659377459E-02  0.10207964083E+01  0.10205342444E+01 0.  0.
     999903    2    3    3    0    0 -0.95479284696E-01  0.52555840900E-01  0.67885391714E-01  0.13003001113E+00  0.20517484405E-01 0.  0.
         14    1    1    2    0    0  0.10301856367E-02  0.23070240537E-01 -0.13659377459E-02  0.23133591740E-01  0.00000000000E+00 0.  1.
     999901    1    3    3    0    0  0.94449099060E-01 -0.75626081437E-01 -0.66519453968E-01  0.89076639713E+00  0.88000000000E+00 0. -1.
        -11    1    4    4    0    0 -0.35100147958E-01  0.27967376631E-01  0.35549000811E-01  0.57255454953E-01  0.51100000000E-03 0. -1.
         11    1    4    4    0    0 -0.60379136739E-01  0.24588464269E-01  0.32336390903E-01  0.72774556172E-01  0.51100000000E-03 0.  1.
</event>
<event>
 8    1  0.1166736E+005  0.1043930E+01  0.7957747E-01            NaN
         13   -1    0    0    0    0  0.00000000000E+00  0.00000000000E+00  0.74505805969E-08  0.10566000000E+00  0.10566000000E+00 0.  1.
     999900   -1    0    0    0    0 -0.00000000000E+00 -0.00000000000E+00 -0.74505805969E-08  0.93827000000E+00  0.93827000000E+00 0.  1.
     999902    2    1    2    0    0  0.12844780563E-01 -0.20380963689E-01 -0.19886446151E-02  0.10197571480E+01  0.10194706048E+01 0.  0.
     999903    2    3    3    0    0 -0.77022921552E-01 -0.92297990075E-01 -0.48234400568E-01  0.13105757413E+00  0.19951965397E-01 0.  0.
         14    1    1    2    0    0 -0.12844780563E-01  0.20380963689E-01  0.19886446151E-02  0.24172852045E-01  0.00000000000E+00 0. -1.
     999901    1    3    3    0    0  0.89867702115E-01  0.71917026386E-01  0.46245755953E-01  0.88869957382E+00  0.88000000000E+00 0.  1.
        -11    1    4    4    0    0 -0.50952989979E-01 -0.46179548095E-01 -0.24461100451E-01  0.72988796444E-01  0.51100000000E-03 0. -1.
         11    1    4    4    0    0 -0.26069931573E-01 -0.46118441979E-01 -0.23773300116E-01  0.58068777689E-01  0.51100000000E-03 0.  1.
</event>
<event>
 8    1  0.1166736E+005  0.1043930E+01  0.7957747E-01            NaN
         13   -1    0    0    0    0  0.00000000000E+00  0.00000000000E+00  0.74505805969E-08  0.10566000000E+00  0.10566000000E+00 0.  1.
     999900   -1    0    0    0    0 -0.00000000000E+00 -0.00000000000E+00 -0.74505805969E-08  0.93827000000E+00  0.93827000000E+00 0. -1.
     999902    2    1    2    0    0  0.49598172162E-02 -0.23315098930E-03  0.23477174454E-01  0.10199335030E+01  0.10196511750E+01 0.  0.
     999903    2    3    3    0    0  0.99878391049E-01 -0.79421290006E-01  0.22857287641E-01  0.13129371027E+00  0.20788180641E-01 0.  0.
         14    1    1    2    0    0 -0.49598172162E-02  0.23315098930E-03 -0.23477174454E-01  0.23996496964E-01  0.00000000000E+00 0. -1.
     999901    1    3    3    0    0 -0.94918573833E-01  0.79188139017E-01  0.61988681303E-03  0.88863979276E+00  0.88000000000E+00 0.  1.
        -11    1    4    4    0    0  0.79232205895E-01 -0.58746398129E-01  0.92838549282E-02  0.99072361572E-01  0.51100000000E-03 0. -1.
         11    1    4    4    0    0  0.20646185154E-01 -0.20674891877E-01  0.13573432713E-01  0.32221348702E-01  0.51100000000E-03 0.  1.
</event>
<event>
 8    1  0.1166736E+005  0.1043930E+01  0.7957747E-01            NaN
         13   -1    0    0    0    0  0.00000000000E+00  0.00000000000E+00  0.74505805969E-08  0.10566000000E+00  0.10566000000E+00 0.  1.
     999900   -1    0    0    0    0 -0.00000000000E+00 -0.00000000000E+00 -0.74505805969E-08  0.93827000000E+00  0.93827000000E+00 0. -1.
     999902    2    1    2    0    0 -0.10711233487E-01 -0.10959370690E-01 -0.19196409807E-01  0.10193670100E+01  0.10190710282E+01 0.  0.
     999903    2    3    3    0    0 -0.12886109005E+00 -0.10881777388E-01  0.11143350545E-01  0.13095275094E+00  0.17345175419E-01 0.  0.
         14    1    1    2    0    0  0.10711233487E-01  0.10959370690E-01  0.19196409807E-01  0.24562990010E-01  0.00000000000E+00 0.  1.
     999901    1    3    3    0    0  0.11814985656E+00 -0.77593302438E-04 -0.30339760352E-01  0.88841425905E+00  0.88000000000E+00 0. -1.
        -11    1    4    4    0    0 -0.96441817655E-01 -0.11818453585E-01  0.14895120214E-01  0.98299673269E-01  0.51100000000E-03 0.  1.
         11    1    4    4    0    0 -0.32419272392E-01  0.93667619716E-03 -0.37517696691E-02  0.32653077671E-01  0.51100000000E-03 0. -1.
</event>
<event>
 8    1  0.1166736E+005  0.1043930E+01  0.7957747E-01            NaN
         13   -1    0    0    0    0  0.00000000000E+00  0.00000000000E+00  0.74505805969E-08  0.10566000000E+00  0.10566000000E+00 0.  1.
     999900   -1    0    0    0    0 -0.00000000000E+00 -0.00000000000E+00 -0.74505805969E-08  0.93827000000E+00  0.93827000000E+00 0.  1.
     999902    2    1    2    0    0 -0.19401412259E-01  0.44231221400E-02 -0.11448968071E-01  0.10209722632E+01  0.10207141150E+01 0.  0.
     999903    2    3    3    0    0 -0.91866296332E-01  0.61769353039E-01 -0.73783467181E-01  0.13394050541E+00  0.15530279590E-01 0.  0.
         14    1    1    2    0    0  0.19401412259E-01 -0.44231221400E-02  0.11448968071E-01  0.22957736757E-01  0.00000000000E+00 0.  1.
     999901    1    3    3    0    0  0.72464884073E-01 -0.57346230899E-01  0.62334499109E-01  0.88703175783E+00  0.88000000000E+00 0. -1.
        -11    1    4    4    0    0 -0.39564579888E-01  0.22392767124E-01 -0.22223063535E-01  0.50605510324E-01  0.51100000000E-03 0.  1.
         11    1    4    4    0    0 -0.52301716443E-01  0.39376585915E-01 -0.51560403646E-01  0.83334995088E-01  0.51100000000E-03 0. -1.
</event>
<event>
 8    1  0.1166736E+005  0.1043930E+01  0.7957747E-01            NaN
         13   -1    0    0    0    0  0.00000000000E+00  0.00000000000E+00  0.74505805969E-08  0.10566000000E+00  0.10566000000E+00 0. -1.
     999900   -1    0    0    0    0 -0.00000000000E+00 -0.00000000000E+00 -0.74505805969E-08  0.93827000000E+00  0.93827000000E+00 0.  1.
     999902    2    1    2    0    0  0.64808506190E-02  0.91380570545E-02 -0.21096336788E-01  0.10200435826E+01  0.10197638694E+01 0.  0.
     999903    2    3    3    0    0  0.38540353101E-01 -0.11073037881E-01 -0.12536913227E+00  0.13307733974E+00  0.19600715296E-01 0.  0.
         14    1    1    2    0    0 -0.64808506190E-02 -0.91380570545E-02  0.21096336788E-01  0.23886417424E-01  0.00000000000E+00 0. -1.
     999901    1    3    3    0    0 -0.32059502482E-01  0.20211094935E-01  0.10427279548E+00  0.88696624284E+00  0.88000000000E+00 0. -1.
        -11    1    4    4    0    0  0.18093045208E-01 -0.70504152008E-02 -0.32205917940E-01  0.37610489372E-01  0.51100000000E-03 0.  1.
         11    1    4    4    0    0  0.20447307893E-01 -0.40226226799E-02 -0.93163214330E-01  0.95466850365E-01  0.51100000000E-03 0. -1.
</event>
<event>
 7    1  0.1166736E+005  0.1043930E+01  0.7957747E-01            NaN
         13   -1    0    0    0    0  0.00000000000E+00  0.00000000000E+00  0.74505805969E-08  0.10566000000E+00  0.10566000000E+00 0.  1.
     999900   -1    0    0    0    0 -0.00000000000E+00 -0.00000000000E+00 -0.74505805969E-08  0.93827000000E+00  0.93827000000E+00 0. -1.
     999903    2    1    2    0    0  0.85920776455E-01 -0.19908700137E-01 -0.40943033133E-01  0.99162166292E-01  0.19443947485E-01 0.  0.
         14    1    1    2    0    0 -0.33224826165E-01  0.27034556124E-01 -0.41087778012E-01  0.59354543217E-01  0.00000000000E+00 0. -1.
     999901    1    1    2    0    0 -0.52695950290E-01 -0.71258559871E-02  0.82030811145E-01  0.88541329049E+00  0.88000000000E+00 0.  1.
        -11    1    3    3    0    0  0.34383009599E-01 -0.10014281183E-01 -0.65341487589E-02  0.36406502135E-01  0.51100000000E-03 0. -1.
         11    1    3    3    0    0  0.51537766856E-01 -0.98944189544E-02 -0.34408884374E-01  0.62755664157E-01  0.51100000000E-03 0.  1.
</event>
<event>
 8    1  0.1166736E+005  0.1043930E+01  0.7957747E-01            NaN
         13   -1    0    0    0    0  0.00000000000E+00  0.00000000000E+00  0.74505805969E-08  0.10566000000E+00  0.10566000000E+00 0.  1.
     999900   -1    0    0    0    0 -0.00000000000E+00 -0.00000000000E+00 -0.74505805969E-08  0.93827000000E+00  0.93827000000E+00 0. -1.
     999902    2    1    2    0    0 -0.13505374294E-01  0.38487692720E-03 -0.19810946040E-01  0.10199504911E+01  0.10196685674E+01 0.  0.
     999903    2    3    3    0    0  0.12368128540E+00 -0.56969766807E-02  0.26357925901E-01  0.12810480192E+00  0.19661742431E-01 0.  0.
         14    1    1    2    0    0  0.13505374294E-01 -0.38487692720E-03  0.19810946040E-01  0.23979508921E-01  0.00000000000E+00 0. -1.
     999901    1    3    3    0    0 -0.13718665969E+00  0.60818536079E-02 -0.46168871941E-01  0.89184568916E+00  0.88000000000E+00 0. -1.
        -11    1    4    4    0    0  0.40890860128E-01 -0.11166694859E-01  0.88263298497E-02  0.43300378009E-01  0.51100000000E-03 0. -1.
         11    1    4    4    0    0  0.82790425270E-01  0.54697181781E-02  0.17531596051E-01  0.84804423908E-01  0.51100000000E-03 0.  1.
</event>
<event>
 8    1  0.1166736E+005  0.1043930E+01  0.7957747E-01            NaN
         13   -1    0    0    0    0  0.00000000000E+00  0.00000000000E+00  0.74505805969E-08  0.10566000000E+00  0.10566000000E+00 0.  1.
     999900   -1    0    0    0    0 -0.00000000000E+00 -0.00000000000E+00 -0.74505805969E-08  0.93827000000E+00  0.93827000000E+00 0.  1.
     999902    2    1    2    0    0  0.13366676100E-03 -0.24994362183E-02  0.23570896868E-01  0.10202265777E+01  0.10199511840E+01 0.  0.
     999903    2    3    3    0    0 -0.31035053430E-01  0.83392862261E-01  0.96072606802E-01  0.13252985362E+00  0.20412552619E-01 0.  0.
         14    1    1    2    0    0 -0.13366676100E-03  0.24994362183E-02 -0.23570896868E-01  0.23703422271E-01  0.00000000000E+00 0. -1.
     999901    1    3    3    0    0  0.31168720191E-01 -0.85892298479E-01 -0.72501709934E-01  0.88769672411E+00  0.88000000000E+00 0. -1.
        -11    1    4    4    0    0 -0.23607656048E-01  0.55741573789E-01  0.51132548618E-01  0.79241675409E-01  0.51100000000E-03 0. -1.
         11    1    4    4    0    0 -0.74273973815E-02  0.27651288472E-01  0.44940058184E-01  0.53288178207E-01  0.51100000000E-03 0.  1.
</event>
<event>
 8    1  0.1166736E+005  0.1043930E+01  0.7957747E-01            NaN
         13   -1    0    0    0    0  0.00000000000E+00  0.00000000000E+00  0.74505805969E-08  0.10566000000E+00  0.10566000000E+00 0. -1.
     999900   -1    0    0    0    0 -0.00000000000E+00 -0.00000000000E+00 -0.74505805969E-08  0.93827000000E+00  0.93827000000E+00 0. -1.
     999902    2    1    2    0    0  0.23401532923E-01 -0.63328024372E-02 -0.10219006653E-01  0.10176209858E+01  0.10172808396E+01 0.  0.
     999903    2    3    3    0    0  0.10368433047E+00  0.74515634661E-01  0.28883799354E-02  0.13017881816E+00  0.25202415868E-01 0.  0.
         14    1    1    2    0    0 -0.23401532923E-01  0.63328024372E-02  0.10219006653E-01  0.26309014175E-01  0.00000000000E+00 0.  1.
     999901    1    3    3    0    0 -0.80282797547E-01 -0.80848437098E-01 -0.13107386588E-01  0.88744216766E+00  0.88000000000E+00 0.  1.
        -11    1    4    4    0    0  0.26299499094E-01  0.32708142437E-01  0.44414277394E-02  0.42207506863E-01  0.51100000000E-03 0. -1.
         11    1    4    4    0    0  0.77384831376E-01  0.41807492224E-01 -0.15530478039E-02  0.87971311299E-01  0.51100000000E-03 0.  1.
</event>
<event>
 8    1  0.1166736E+005  0.1043930E+01  0.7957747E-01            NaN
         13   -1    0    0    0    0  0.00000000000E+00  0.00000000000E+00  0.74505805969E-08  0.10566000000E+00  0.10566000000E+00 0. -1.
     999900   -1    0    0    0    0 -0.00000000000E+00 -0.00000000000E+00 -0.74505805969E-08  0.93827000000E+00  0.93827000000E+00 0.  1.
     999902    2    1    2    0    0  0.63137360888E-02 -0.92661128880E-02 -0.20007986921E-01  0.10209943585E+01  0.10207367126E+01 0.  0.
     999903    2    3    3    0    0  0.20047952920E-01 -0.12760046745E+00  0.18739448832E-01  0.13212259497E+00  0.20528357170E-01 0.  0.
         14    1    1    2    0    0 -0.63137360888E-02  0.92661128880E-02  0.20007986921E-01  0.22935641523E-01  0.00000000000E+00 0. -1.
     999901    1    3    3    0    0 -0.13734216831E-01  0.11833435457E+00 -0.38747435753E-01  0.88887176351E+00  0.88000000000E+00 0.  1.
        -11    1    4    4    0    0 -0.19958647106E-02 -0.45044564208E-01  0.26359368482E-02  0.45168634302E-01  0.51100000000E-03 0.  1.
         11    1    4    4    0    0  0.22043817631E-01 -0.82555903247E-01  0.16103511984E-01  0.86953960668E-01  0.51100000000E-03 0. -1.
</event>
<event>
 8    1  0.1166736E+005  0.1043930E+01  0.7957747E-01            NaN
         13   -1    0    0    0    0  0.00000000000E+00  0.00000000000E+00  0.74505805969E-08  0.10566000000E+00  0.10566000000E+00 0.  1.
     999900   -1    0    0    0    0 -0.00000000000E+00 -0.00000000000E+00 -0.74505805969E-08  0.93827000000E+00  0.93827000000E+00 0. -1.
     999902    2    1    2    0    0 -0.11986938377E-01  0.13251383676E-01 -0.17599541823E-01  0.10188495348E+01  0.10185407920E+01 0.  0.
     999903    2    3    3    0    0  0.29268524591E-01 -0.68437160083E-01 -0.10455807823E+00  0.12984063810E+00  0.19644545445E-01 0.  0.
         14    1    1    2    0    0  0.11986938377E-01 -0.13251383676E-01  0.17599541823E-01  0.25080465174E-01  0.00000000000E+00 0.  1.
     999901    1    3    3    0    0 -0.41255462968E-01  0.81688543760E-01  0.86958536411E-01  0.88900889673E+00  0.88000000000E+00 0.  1.
        -11    1    4    4    0    0  0.72984044519E-02 -0.23092585361E-01 -0.50085686367E-01  0.55636061202E-01  0.51100000000E-03 0. -1.
         11    1    4    4    0    0  0.21970120139E-01 -0.45344574722E-01 -0.54472391867E-01  0.74204576896E-01  0.51100000000E-03 0.  1.
</event>
<event>
 8    1  0.1166736E+005  0.1043930E+01  0.7957747E-01            NaN
         13   -1    0    0    0    0  0.00000000000E+00  0.00000000000E+00  0.74505805969E-08  0.10566000000E+00  0.10566000000E+00 0.  1.
     999900   -1    0    0    0    0 -0.00000000000E+00 -0.00000000000E+00 -0.74505805969E-08  0.93827000000E+00  0.93827000000E+00 0.  1.
     999902    2    1    2    0    0 -0.96510118789E-02  0.12981587476E-01  0.17974169402E-01  0.10197487178E+01  0.10194619723E+01 0.  0.
     999903    2    3    3    0    0  0.11292977218E+00  0.58693602378E-01 -0.13662736512E-01  0.12951474251E+00  0.19731339383E-01 0.  0.
         14    1    1    2    0    0  0.96510118789E-02 -0.12981587476E-01 -0.17974169402E-01  0.24181282211E-01  0.00000000000E+00 0.  1.
     999901    1    3    3    0    0 -0.12258078406E+00 -0.45712014902E-01  0.31636905914E-01  0.89023397528E+00  0.88000000000E+00 0.  1.
        -11    1    4    4    0    0  0.62126357251E-01  0.37345854766E-01 -0.16462692552E-01  0.74334907685E-01  0.51100000000E-03 0. -1.
         11    1    4    4    0    0  0.50803414927E-01  0.21347747612E-01  0.27999560401E-02  0.55179834824E-01  0.51100000000E-03 0.  1.
</event>
<event>
 8    1  0.1166736E+005  0.1043930E+01  0.7957747E-01            NaN
         13   -1    0    0    0    0  0.00000000000E+00  0.00000000000E+00  0.74505805969E-08  0.10566000000E+00  0.10566000000E+00 0. -1.
     999900   -1    0    0    0    0 -0.00000000000E+00 -0.00000000000E+00 -0.74505805969E-08  0.93827000000E+00  0.93827000000E+00 0.  1.
     999902    2    1    2    0    0 -0.10412611100E-01 -0.18501733541E-01  0.80891421943E-02  0.10212106066E+01  0.10209578504E+01 0.  0.
     999903    2    3    3    0    0 -0.49326701804E-01 -0.11660960501E+00 -0.38100226464E-01  0.13370121587E+00  0.19835936530E-01 0.  0.
         14    1    1    2    0    0  0.10412611100E-01  0.18501733541E-01 -0.80891421943E-02  0.22719393376E-01  0.00000000000E+00 0. -1.
     999901    1    3    3    0    0  0.38914090704E-01  0.98107871466E-01  0.46189368658E-01  0.88750939075E+00  0.88000000000E+00 0. -1.
        -11    1    4    4    0    0 -0.12466441428E-01 -0.18139615254E-01 -0.13124627801E-01  0.25631519256E-01  0.51100000000E-03 0. -1.
         11    1    4    4    0    0 -0.36860260376E-01 -0.98469989753E-01 -0.24975598662E-01  0.10806969661E+00  0.51100000000E-03 0.  1.
</event>
<event>
 8    1  0.1166736E+005  0.1043930E+01  0.7957747E-01            NaN
         13   -1    0    0    0    0  0.00000000000E+00  0.00000000000E+00  0.74505805969E-08  0.10566000000E+00  0.10566000000E+00 0.  1.
     999900   -1    0    0    0    0 -0.00000000000E+00 -0.00000000000E+00 -0.74505805969E-08  0.93827000000E+00  0.93827000000E+00 0. -1.
     999902    2    1    2    0    0  0.16613903799E-01  0.15650028023E-01  0.46298683446E-02  0.10206409284E+01  0.10203751878E+01 0.  0.
     999903    2    3    3    0    0 -0.77376124034E-01  0.13695555880E-01 -0.10062044491E+00  0.12939709320E+00  0.21083191698E-01 0.  0.
         14    1    1    2    0    0 -0.16613903799E-01 -0.15650028023E-01 -0.46298683446E-02  0.23289071632E-01  0.00000000000E+00 0.  1.
     999901    1    3    3    0    0  0.93990027834E-01  0.19544721431E-02  0.10525031325E+00  0.89124383517E+00  0.88000000000E+00 0.  1.
        -11    1    4    4    0    0 -0.53980070649E-01  0.13429286394E-01 -0.83774248554E-01  0.10056132260E+00  0.51100000000E-03 0.  1.
         11    1    4    4    0    0 -0.23396053386E-01  0.26626948542E-03 -0.16846196356E-01  0.28835770601E-01  0.51100000000E-03 0. -1.
</event>
<event>
 8    1  0.1166736E+005  0.1043930E+01  0.7957747E-01            NaN
         13   -1    0    0    0    0  0.00000000000E+00  0.00000000000E+00  0.74505805969E-08  0.10566000000E+00  0.10566000000E+00 0.  1.
     999900   -1    0    0    0    0 -0.00000000000E+00 -0.00000000000E+00 -0.74505805969E-08  0.93827000000E+00  0.93827000000E+00 0.  1.
     999902    2    1    2    0    0  0.18932105357E-01  0.13685935624E-01  0.86374597316E-02  0.10190234716E+01  0.10187190488E+01 0.  0.
     999903    2    3    3    0    0  0.12883708205E+00  0.18569693076E-01  0.96799177010E-02  0.13217284058E+00  0.20787779348E-01 0.  0.
         14    1    1    2    0    0 -0.18932105357E-01 -0.13685935624E-01 -0.86374597316E-02  0.24906528416E-01  0.00000000000E+00 0. -1.
     999901    1    3    3    0    0 -0.10990497669E+00 -0.48837574514E-02 -0.10424579694E-02  0.88685063100E+00  0.88000000000E+00 0.  1.
        -11    1    4    4    0    0  0.98749090891E-01  0.64091639436E-02  0.28148154860E-02  0.98998205244E-01  0.51100000000E-03 0. -1.
         11    1    4    4    0    0  0.30087991154E-01  0.12160529132E-01  0.68651022149E-02  0.33174635339E-01  0.51100000000E-03 0.  1.
</event>
<event>
 8    1  0.1166736E+005  0.1043930E+01  0.7957747E-01            NaN
         13   -1    0    0    0    0  0.00000000000E+00  0.00000000000E+00  0.74505805969E-08  0.10566000000E+00  0.10566000000E+00 0. -1.
     999900   -1    0    0    0    0 -0.00000000000E+00 -0.00000000000E+00 -0.74505805969E-08  0.93827000000E+00  0.93827000000E+00 0.  1.
     999902    2    1    2    0    0 -0.49797924733E-02 -0.22901778156E-01 -0.42897473854E-02  0.10201037181E+01  0.10198254282E+01 0.  0.
     999903    2    3    3    0    0  0.45978959927E-01  0.11460309250E+00  0.24903421666E-01  0.12749147026E+00  0.19645890499E-01 0.  0.
         14    1    1    2    0    0  0.49797924733E-02  0.22901778156E-01  0.42897473854E-02  0.23826281884E-01  0.00000000000E+00 0.  1.
     999901    1    3    3    0    0 -0.50958752400E-01 -0.13750487065E+00 -0.29193169052E-01  0.89261224785E+00  0.88000000000E+00 0. -1.
        -11    1    4    4    0    0  0.55802489291E-02  0.17487508883E-01 -0.31470691278E-02  0.18631084514E-01  0.51100000000E-03 0.  1.
         11    1    4    4    0    0  0.40398710998E-01  0.97115583612E-01  0.28050490794E-01  0.10886038575E+00  0.51100000000E-03 0. -1.
</event>
<event>
 8    1  0.1166736E+005  0.1043930E+01  0.7957747E-01            NaN
         13   -1    0    0    0    0  0.00000000000E+00  0.00000000000E+00  0.74505805969E-08  0.10566000000E+00  0.10566000000E+00 0. -1.
     999900   -1    0    0    0    0 -0.00000000000E+00 -0.00000000000E+00 -0.74505805969E-08  0.93827000000E+00  0.93827000000E+00 0. -1.
     999902    2    1    2    0    0 -0.15951880851E-01  0.27971229763E-02  0.28280844296E-01  0.10113402385E+01  0.10108150105E+01 0.  0.
     999903    2    3    3    0    0 -0.78375118199E-01 -0.62985128204E-01 -0.65716959761E-01  0.12170011335E+00  0.19555389589E-01 0.  0.
         14    1    1    2    0    0  0.15951880851E-01 -0.27971229763E-02 -0.28280844296E-01  0.32589761486E-01  0.00000000000E+00 0.  1.
     999901    1    3    3    0    0  0.62423237348E-01  0.65782251181E-01  0.93997804057E-01  0.88964012516E+00  0.88000000000E+00 0.  1.
        -11    1    4    4    0    0 -0.44186519710E-01 -0.47076363745E-01 -0.44660879401E-01  0.78507883791E-01  0.51100000000E-03 0. -1.
         11    1    4    4    0    0 -0.34188598489E-01 -0.15908764460E-01 -0.21056080359E-01  0.43192229560E-01  0.51100000000E-03 0.  1.
</event>
<event>
 8    1  0.1261620E+005  0.1043930E+01  0.7957747E-01            NaN
         13   -1    0    0    0    0  0.00000000000E+00  0.00000000000E+00  0.74505805969E-08  0.10566000000E+00  0.10566000000E+00 0.  1.
     999900   -1    0    0    0    0 -0.00000000000E+00 -0.00000000000E+00 -0.74505805969E-08  0.93827000000E+00  0.93827000000E+00 0.  1.
     999902    2    1    2    0    0  0.59138012325E-02 -0.18018537484E-01 -0.13670264419E-01  0.10205522998E+01  0.10202845092E+01 0.  0.
     999903    2    3    3    0    0 -0.52802818642E-01 -0.54391342987E-01 -0.10719168077E+00  0.13290547940E+00  0.20670127675E-01 0.  0.
         14    1    1    2    0    0 -0.59138012325E-02  0.18018537484E-01  0.13670264419E-01  0.23377700215E-01  0.00000000000E+00 0.  1.
     999901    1    3    3    0    0  0.58716619875E-01  0.36372805503E-01  0.93521416353E-01  0.88764682039E+00  0.88000000000E+00 0.  1.
        -11    1    4    4    0    0 -0.33697988546E-01 -0.20283121069E-01 -0.57739602770E-01  0.69864742763E-01  0.51100000000E-03 0. -1.
         11    1    4    4    0    0 -0.19104830097E-01 -0.34108221918E-01 -0.49452078002E-01  0.63040736632E-01  0.51100000000E-03 0.  1.
</event>
<event>
 8    1  0.1166736E+005  0.1043930E+01  0.7957747E-01            NaN
         13   -1    0    0    0    0  0.00000000000E+00  0.00000000000E+00  0.74505805969E-08  0.10566000000E+00  0.10566000000E+00 0. -1.
     999900   -1    0    0    0    0 -0.00000000000E+00 -0.00000000000E+00 -0.74505805969E-08  0.93827000000E+00  0.93827000000E+00 0.  1.
     999902    2    1    2    0    0  0.15952742938E-01 -0.75339486564E-03  0.10592355229E-01  0.10247660860E+01  0.10245868803E+01 0.  0.
     999903    2    3    3    0    0  0.32487484190E-02  0.46779811159E-01  0.12597596104E+00  0.13587116889E+00  0.19802188669E-01 0.  0.
         14    1    1    2    0    0 -0.15952742938E-01  0.75339486564E-03 -0.10592355229E-01  0.19163914015E-01  0.00000000000E+00 0.  1.
     999901    1    3    3    0    0  0.12703994519E-01 -0.47533206024E-01 -0.11538360581E+00  0.88889491710E+00  0.88000000000E+00 0.  1.
        -11    1    4    4    0    0  0.72464703419E-02  0.10812772773E-01  0.50699416013E-01  0.52346148784E-01  0.51100000000E-03 0. -1.
         11    1    4    4    0    0 -0.39977219229E-02  0.35967038385E-01  0.75276545029E-01  0.83525020104E-01  0.51100000000E-03 0.  1.
</event>
<event>
 8    1  0.1166736E+005  0.1043930E+01  0.7957747E-01            NaN
         13   -1    0    0    0    0  0.00000000000E+00  0.00000000000E+00  0.74505805969E-08  0.10566000000E+00  0.10566000000E+00 0. -1.
     999900   -1    0    0    0    0 -0.00000000000E+00 -0.00000000000E+00 -0.74505805969E-08  0.93827000000E+00  0.93827000000E+00 0. -1.
     999902    2    1    2    0    0  0.11080934838E-01 -0.13139897328E-01 -0.16619510598E-01  0.10200207518E+01  0.10197404973E+01 0.  0.
     999903    2    3    3    0    0  0.20874720689E-01  0.25151422965E-01 -0.12663419973E+00  0.13229028857E+00  0.19903564216E-01 0.  0.
         14    1    1    2    0    0 -0.11080934838E-01  0.13139897328E-01  0.16619510598E-01  0.23909248236E-01  0.00000000000E+00 0. -1.
     999901    1    3    3    0    0 -0.97937858509E-02 -0.38291320293E-01  0.11001468913E+00  0.88773046319E+00  0.88000000000E+00 0.  1.
        -11    1    4    4    0    0 -0.31657953282E-03  0.13034919613E-01 -0.57783232095E-01  0.59238267904E-01  0.51100000000E-03 0.  1.
         11    1    4    4    0    0  0.21191300222E-01  0.12116503352E-01 -0.68850967636E-01  0.73052020670E-01  0.51100000000E-03 0. -1.
</event>
<event>
 8    1  0.1166736E+005  0.1043930E+01  0.7957747E-01            NaN
         13   -1    0    0    0    0  0.00000000000E+00  0.00000000000E+00  0.74505805969E-08  0.10566000000E+00  0.10566000000E+00 0. -1.
     999900   -1    0    0    0    0 -0.00000000000E+00 -0.00000000000E+00 -0.74505805969E-08  0.93827000000E+00  0.93827000000E+00 0. -1.
     999902    2    1    2    0    0  0.63912584691E-02  0.21469851476E-01 -0.67959276743E-02  0.10205208706E+01  0.10202523511E+01 0.  0.
     999903    2    3    3    0    0  0.50720126807E-01  0.11491025398E-01 -0.11980537991E+00  0.13213145043E+00  0.20020394831E-01 0.  0.
         14    1    1    2    0    0 -0.63912584691E-02 -0.21469851476E-01  0.67959276743E-02  0.23409129419E-01  0.00000000000E+00 0. -1.
     999901    1    3    3    0    0 -0.44328868338E-01  0.99788260781E-02  0.11300945224E+00  0.88838942015E+00  0.88000000000E+00 0.  1.
        -11    1    4    4    0    0  0.40552208215E-01  0.15537340360E-01 -0.10567752175E+00  0.11425362253E+00  0.51100000000E-03 0. -1.
         11    1    4    4    0    0  0.10167918593E-01 -0.40463149616E-02 -0.14127858157E-01  0.17877827899E-01  0.51100000000E-03 0.  1.
</event>
<event>
 8    1  0.1166736E+005  0.1043930E+01  0.7957747E-01            NaN
         13   -1    0    0    0    0  0.00000000000E+00  0.00000000000E+00  0.74505805969E-08  0.10566000000E+00  0.10566000000E+00 0.  1.
     999900   -1    0    0    0    0 -0.00000000000E+00 -0.00000000000E+00 -0.74505805969E-08  0.93827000000E+00  0.93827000000E+00 0.  1.
     999902    2    1    2    0    0 -0.33124857116E-02  0.23755830528E-01  0.31907765389E-02  0.10197330353E+01  0.10194459133E+01 0.  0.
     999903    2    3    3    0    0  0.52946845051E-01  0.55324885137E-01  0.10506293229E+00  0.13151028530E+00  0.19812220536E-01 0.  0.
         14    1    1    2    0    0  0.33124857116E-02 -0.23755830528E-01 -0.31907765389E-02  0.24196964698E-01  0.00000000000E+00 0.  1.
     999901    1    3    3    0    0 -0.56259330762E-01 -0.31569054609E-01 -0.10187215575E+00  0.88822275000E+00  0.88000000000E+00 0. -1.
        -11    1    4    4    0    0  0.15048224147E-01  0.11900240330E-01  0.41394119091E-01  0.45626735432E-01  0.51100000000E-03 0.  1.
         11    1    4    4    0    0  0.37898620904E-01  0.43424644806E-01  0.63668813195E-01  0.85883549866E-01  0.51100000000E-03 0. -1.
</event>
<event>
 8    1  0.1166736E+005  0.1043930E+01  0.7957747E-01            NaN
         13   -1    0    0    0    0  0.00000000000E+00  0.00000000000E+00  0.74505805969E-08  0.10566000000E+00  0.10566000000E+00 0.  1.
     999900   -1    0    0    0    0 -0.00000000000E+00 -0.00000000000E+00 -0.74505805969E-08  0.93827000000E+00  0.93827000000E+00 0. -1.
     999902    2    1    2    0    0  0.20888063298E-01  0.96892901169E-02 -0.16876583165E-01  0.10153815746E+01  0.10149801621E+01 0.  0.
     999903    2    3    3    0    0  0.99255150586E-01 -0.74176993154E-01 -0.24300189761E-01  0.12789632756E+00  0.20326341301E-01 0.  0.
         14    1    1    2    0    0 -0.20888063298E-01 -0.96892901169E-02  0.16876583165E-01  0.28548425362E-01  0.00000000000E+00 0.  1.
     999901    1    3    3    0    0 -0.78367087287E-01  0.83866283271E-01  0.74236065962E-02  0.88748524707E+00  0.88000000000E+00 0. -1.
        -11    1    4    4    0    0  0.78807505992E-01 -0.48262106993E-01 -0.20546134675E-01  0.94669206942E-01  0.51100000000E-03 0.  1.
         11    1    4    4    0    0  0.20447644594E-01 -0.25914886161E-01 -0.37540550865E-02  0.33227120621E-01  0.51100000000E-03 0. -1.
</event>
<event>
 8    1  0.1166736E+005  0.1043930E+01  0.7957747E-01            NaN
         13   -1    0    0    0    0  0.00000000000E+00  0.00000000000E+00  0.74505805969E-08  0.10566000000E+00  0.10566000000E+00 0.  1.
     999900   -1    0    0    0    0 -0.00000000000E+00 -0.00000000000E+00 -0.74505805969E-08  0.93827000000E+00  0.93827000000E+00 0.  1.
     999902    2    1    2    0    0  0.21990970983E-01 -0.19471282098E-02 -0.90254486529E-02  0.10200793640E+01  0.10198004982E+01 0.  0.
     999903    2    3    3    0    0 -0.23293702781E-01  0.10808356509E+00 -0.65855242481E-01  0.13025517880E+00  0.20120760652E-01 0.  0.
         14    1    1    2    0    0 -0.21990970983E-01  0.19471282098E-02  0.90254486529E-02  0.23850635975E-01  0.00000000000E+00 0. -1.
     999901    1    3    3    0    0  0.45284673764E-01 -0.11003069330E+00  0.56829793828E-01  0.88982418523E+00  0.88000000000E+00 0.  1.
        -11    1    4    4    0    0 -0.40440546045E-02  0.65052290699E-01 -0.36148793054E-01  0.74532887124E-01  0.51100000000E-03 0.  1.
         11    1    4    4    0    0 -0.19249648176E-01  0.43031274394E-01 -0.29706449428E-01  0.55722291674E-01  0.51100000000E-03 0. -1.
</event>
<event>
 8    1  0.1166736E+005  0.1043930E+01  0.7957747E-01            NaN
         13   -1    0    0    0    0  0.00000000000E+00  0.00000000000E+00  0.74505805969E-08  0.10566000000E+00  0.10566000000E+00 0. -1.
     999900   -1    0    0    0    0 -0.00000000000E+00 -0.00000000000E+00 -0.74505805969E-08  0.93827000000E+00  0.93827000000E+00 0.  1.
     999902    2    1    2    0    0 -0.18330078053E-01 -0.11022417386E-01 -0.11927373646E-01  0.10194402534E+01  0.10191460556E+01 0.  0.
     999903    2    3    3    0    0 -0.82775048958E-01 -0.91187793706E-01  0.42451533425E-01  0.13178226331E+00  0.19937647351E-01 0.  0.
         14    1    1    2    0    0  0.18330078053E-01  0.11022417386E-01  0.11927373646E-01  0.24489746600E-01  0.00000000000E+00 0. -1.
     999901    1    3    3    0    0  0.64444970906E-01  0.80165376320E-01 -0.54378907071E-01  0.88765799009E+00  0.88000000000E+00 0.  1.
        -11    1    4    4    0    0 -0.47133068186E-01 -0.49525316172E-01  0.13186316437E-01  0.69630619132E-01  0.51100000000E-03 0. -1.
         11    1    4    4    0    0 -0.35641980772E-01 -0.41662477534E-01  0.29265216987E-01  0.62151644178E-01  0.51100000000E-03 0.  1.
</event>
<event>
 8    1  0.1166736E+005  0.1043930E+01  0.7957747E-01            NaN
         13   -1    0    0    0    0  0.00000000000E+00  0.00000000000E+00  0.74505805969E-08  0.10566000000E+00  0.10566000000E+00 0.  1.
     999900   -1    0    0    0    0 -0.00000000000E+00 -0.00000000000E+00 -0.74505805969E-08  0.93827000000E+00  0.93827000000E+00 0.  1.
     999902    2    1    2    0    0  0.98970245891E-02 -0.16885579499E-01 -0.13099397928E-01  0.10203786069E+01  0.10201067754E+01 0.  0.
     999903    2    3    3    0    0 -0.50549945726E-01 -0.10845500478E+00 -0.54018674057E-01  0.13262121717E+00  0.18777247489E-01 0.  0.
         14    1    1    2    0    0 -0.98970245891E-02  0.16885579499E-01  0.13099397928E-01  0.23551393097E-01  0.00000000000E+00 0.  1.
     999901    1    3    3    0    0  0.60446970315E-01  0.91569425276E-01  0.40919276129E-01  0.88775738973E+00  0.88000000000E+00 0. -1.
        -11    1    4    4    0    0 -0.11937286512E-01 -0.44730742124E-01 -0.16118429977E-01  0.49024514339E-01  0.51100000000E-03 0.  1.
         11    1    4    4    0    0 -0.38612659214E-01 -0.63724262651E-01 -0.37900244080E-01  0.83596702831E-01  0.51100000000E-03 0. -1.
</event>
<event>
 8    1  0.1166736E+005  0.1043930E+01  0.7957747E-01            NaN
         13   -1    0    0    0    0  0.00000000000E+00  0.00000000000E+00  0.74505805969E-08  0.10566000000E+00  0.10566000000E+00 0. -1.
     999900   -1    0    0    0    0 -0.00000000000E+00 -0.00000000000E+00 -0.74505805969E-08  0.93827000000E+00  0.93827000000E+00 0. -1.
     999902    2    1    2    0    0  0.74527320772E-02  0.22128108997E-01 -0.26676557257E-02  0.10204286636E+01  0.10201579999E+01 0.  0.
     999903    2    3    3    0    0  0.52044205036E-01  0.90819529017E-01 -0.78824135282E-01  0.13335103456E+00  0.24748090586E-01 0.  0.
         14    1    1    2    0    0 -0.74527320772E-02 -0.22128108997E-01  0.26676557257E-02  0.23501336351E-01  0.00000000000E+00 0. -1.
     999901    1    3    3    0    0 -0.44591472959E-01 -0.68691420020E-01  0.76156479556E-01  0.88707762909E+00  0.88000000000E+00 0.  1.
        -11    1    4    4    0    0  0.99988211036E-02  0.18063334545E-01 -0.29181157949E-01  0.35749987113E-01  0.51100000000E-03 0. -1.
         11    1    4    4    0    0  0.42045383933E-01  0.72756194471E-01 -0.49642977333E-01  0.97601047451E-01  0.51100000000E-03 0.  1.
</event>
<event>
 8    1  0.1166736E+005  0.1043930E+01  0.7957747E-01            NaN
         13   -1    0    0    0    0  0.00000000000E+00  0.00000000000E+00  0.74505805969E-08  0.10566000000E+00  0.10566000000E+00 0. -1.
     999900   -1    0    0    0    0 -0.00000000000E+00 -0.00000000000E+00 -0.74505805969E-08  0.93827000000E+00  0.93827000000E+00 0.  1.
     999902    2    1    2    0    0 -0.98744772290E-02 -0.22208361601E-01  0.22908031806E-02  0.10195176178E+01  0.10192252983E+01 0.  0.
     999903    2    3    3    0    0  0.26498205305E-01  0.31669506122E-02 -0.12480982948E+00  0.12928088000E+00  0.20588053307E-01 0.  0.
         14    1    1    2    0    0  0.98744772290E-02  0.22208361601E-01 -0.22908031806E-02  0.24412382202E-01  0.00000000000E+00 0. -1.
     999901    1    3    3    0    0 -0.36372682534E-01 -0.25375312213E-01  0.12710063266E+00  0.89023673780E+00  0.88000000000E+00 0. -1.
        -11    1    4    4    0    0  0.22598033768E-01 -0.54782366065E-02 -0.10106947592E+00  0.10371105192E+00  0.51100000000E-03 0.  1.
         11    1    4    4    0    0  0.39001715373E-02  0.86451872187E-02 -0.23740353558E-01  0.25569828081E-01  0.51100000000E-03 0. -1.
</event>
<event>
 8    1  0.1166736E+005  0.1043930E+01  0.7957747E-01            NaN
         13   -1    0    0    0    0  0.00000000000E+00  0.00000000000E+00  0.74505805969E-08  0.10566000000E+00  0.10566000000E+00 0. -1.
     999900   -1    0    0    0    0 -0.00000000000E+00 -0.00000000000E+00 -0.74505805969E-08  0.93827000000E+00  0.93827000000E+00 0.  1.
     999902    2    1    2    0    0  0.15768588669E-01 -0.36732434435E-03  0.79966782373E-02  0.10262458212E+01  0.10260934438E+01 0.  0.
     999903    2    3    3    0    0 -0.20868088432E-01 -0.55571763759E-01 -0.11923153021E+00  0.13463111001E+00  0.19638735829E-01 0.  0.
         14    1    1    2    0    0 -0.15768588669E-01  0.36732434435E-03 -0.79966782373E-02  0.17684178766E-01  0.00000000000E+00 0. -1.
     999901    1    3    3    0    0  0.36636677101E-01  0.55204439415E-01  0.12722820845E+00  0.89161471122E+00  0.88000000000E+00 0. -1.
        -11    1    4    4    0    0  0.54784326435E-04 -0.83966356471E-02 -0.33710961990E-01  0.34744734432E-01  0.51100000000E-03 0. -1.
         11    1    4    4    0    0 -0.20922872759E-01 -0.47175128112E-01 -0.85520568221E-01  0.99886375581E-01  0.51100000000E-03 0.  1.
</event>
<event>
 8    1  0.1166736E+005  0.1043930E+01  0.7957747E-01            NaN
         13   -1    0    0    0    0  0.00000000000E+00  0.00000000000E+00  0.74505805969E-08  0.10566000000E+00  0.10566000000E+00 0. -1.
     999900   -1    0    0    0    0 -0.00000000000E+00 -0.00000000000E+00 -0.74505805969E-08  0.93827000000E+00  0.93827000000E+00 0. -1.
     999902    2    1    2    0    0  0.21971732648E-01  0.96414478821E-02 -0.57417299583E-03  0.10199290786E+01  0.10196466453E+01 0.  0.
     999903    2    3    3    0    0  0.12076948187E+00  0.17901974487E-01 -0.48391475462E-01  0.13307186013E+00  0.21462446767E-01 0.  0.
         14    1    1    2    0    0 -0.21971732648E-01 -0.96414478821E-02  0.57417299583E-03  0.24000921388E-01  0.00000000000E+00 0.  1.
     999901    1    3    3    0    0 -0.98797749219E-01 -0.82605266054E-02  0.47817302466E-01  0.88685721848E+00  0.88000000000E+00 0.  1.
        -11    1    4    4    0    0  0.96746830805E-01  0.22890523969E-01 -0.38549166584E-01  0.10663125585E+00  0.51100000000E-03 0.  1.
         11    1    4    4    0    0  0.24022651063E-01 -0.49885494815E-02 -0.98423088780E-02  0.26440604287E-01  0.51100000000E-03 0. -1.
</event>
<event>
 8    1  0.1166736E+005  0.1043930E+01  0.7957747E-01            NaN
         13   -1    0    0    0    0  0.00000000000E+00  0.00000000000E+00  0.74505805969E-08  0.10566000000E+00  0.10566000000E+00 0.  1.
     999900   -1    0    0    0    0 -0.00000000000E+00 -0.00000000000E+00 -0.74505805969E-08  0.93827000000E+00  0.93827000000E+00 0. -1.
     999902    2    1    2    0    0 -0.38928014307E-02  0.16114881354E-01  0.16607065894E-01  0.10204643242E+01  0.10201944908E+01 0.  0.
     999903    2    3    3    0    0 -0.82765181609E-01 -0.74595947655E-01 -0.61570819818E-01  0.12885841983E+00  0.19972376313E-01 0.  0.
         14    1    1    2    0    0  0.38928014307E-02 -0.16114881354E-01 -0.16607065894E-01  0.23465675819E-01  0.00000000000E+00 0. -1.
     999901    1    3    3    0    0  0.78872380178E-01  0.90710829008E-01  0.78177885712E-01  0.89160590435E+00  0.88000000000E+00 0.  1.
        -11    1    4    4    0    0 -0.48509468805E-01 -0.50242038338E-01 -0.28739706756E-01  0.75522598244E-01  0.51100000000E-03 0.  1.
         11    1    4    4    0    0 -0.34255712804E-01 -0.24353909317E-01 -0.32831113062E-01  0.53335821589E-01  0.51100000000E-03 0. -1.
</event>
<event>
 8    1  0.1166736E+005  0.1043930E+01  0.7957747E-01            NaN
         13   -1    0    0    0    0  0.00000000000E+00  0.00000000000E+00  0.74505805969E-08  0.10566000000E+00  0.10566000000E+00 0.  1.
     999900   -1    0    0    0    0 -0.00000000000E+00 -0.00000000000E+00 -0.74505805969E-08  0.93827000000E+00  0.93827000000E+00 0. -1.
     999902    2    1    2    0    0 -0.16641818871E-01  0.18014719473E-01  0.25845680046E-02  0.10192690948E+01  0.10189707196E+01 0.  0.
     999903    2    3    3    0    0 -0.47565763324E-01  0.75270283971E-01  0.95369579541E-01  0.13200163323E+00  0.20023910329E-01 0.  0.
         14    1    1    2    0    0  0.16641818871E-01 -0.18014719473E-01 -0.25845680046E-02  0.24660905190E-01  0.00000000000E+00 0.  1.
     999901    1    3    3    0    0  0.30923944454E-01 -0.57255564498E-01 -0.92785011536E-01  0.88726746158E+00  0.88000000000E+00 0. -1.
        -11    1    4    4    0    0 -0.78244900763E-02  0.23264629014E-01  0.36375516806E-01  0.43885133611E-01  0.51100000000E-03 0. -1.
         11    1    4    4    0    0 -0.39741273248E-01  0.52005654956E-01  0.58994062735E-01  0.88116499623E-01  0.51100000000E-03 0.  1.
</event>
<event>
 8    1  0.1166736E+005  0.1043930E+01  0.7957747E-01            NaN
         13   -1    0    0    0    0  0.00000000000E+00  0.00000000000E+00  0.74505805969E-08  0.10566000000E+00  0.10566000000E+00 0. -1.
     999900   -1    0    0    0    0 -0.00000000000E+00 -0.00000000000E+00 -0.74505805969E-08  0.93827000000E+00  0.93827000000E+00 0. -1.
     999902    2    1    2    0    0  0.87284463175E-02  0.15728275953E-01 -0.16090327929E-01  0.10197957278E+01  0.10195101095E+01 0.  0.
     999903    2    3    3    0    0  0.10419195260E+00  0.73358103066E-01 -0.32887218012E-01  0.13259980049E+00  0.16240803825E-01 0.  0.
         14    1    1    2    0    0 -0.87284463175E-02 -0.15728275953E-01  0.16090327929E-01  0.24134272155E-01  0.00000000000E+00 0. -1.
     999901    1    3    3    0    0 -0.95463506281E-01 -0.57629827113E-01  0.16796890083E-01  0.88719592736E+00  0.88000000000E+00 0.  1.
        -11    1    4    4    0    0  0.54740489605E-01  0.41732736861E-01 -0.25623983590E-01  0.73450610509E-01  0.51100000000E-03 0.  1.
         11    1    4    4    0    0  0.49451462993E-01  0.31625366205E-01 -0.72632344218E-02  0.59149189978E-01  0.51100000000E-03 0. -1.
</event>
<event>
 7    1  0.1166736E+005  0.1043930E+01  0.7957747E-01            NaN
         13   -1    0    0    0    0  0.00000000000E+00  0.00000000000E+00  0.74505805969E-08  0.10566000000E+00  0.10566000000E+00 0. -1.
     999900   -1    0    0    0    0 -0.00000000000E+00 -0.00000000000E+00 -0.74505805969E-08  0.93827000000E+00  0.93827000000E+00 0. -1.
     999903    2    1    2    0    0 -0.17243375560E-01 -0.32070334336E-02  0.10579728642E+00  0.10938278397E+00  0.21538536466E-01 0.  0.
         14    1    1    2    0    0  0.39055131580E-02  0.17041390689E-01  0.38783714408E-01  0.42542197086E-01  0.00000000000E+00 0. -1.
     999901    1    1    2    0    0  0.13337862402E-01 -0.13834357255E-01 -0.14458100082E+00  0.89200501894E+00  0.88000000000E+00 0. -1.
        -11    1    3    3    0    0  0.38486489696E-02 -0.22705233882E-02  0.40646123890E-01  0.40894203546E-01  0.51100000000E-03 0. -1.
         11    1    3    3    0    0 -0.21092024530E-01 -0.93651004545E-03  0.65151162525E-01  0.68488580429E-01  0.51100000000E-03 0.  1.
</event>
<event>
 8    1  0.1166736E+005  0.1043930E+01  0.7957747E-01            NaN
         13   -1    0    0    0    0  0.00000000000E+00  0.00000000000E+00  0.74505805969E-08  0.10566000000E+00  0.10566000000E+00 0. -1.
     999900   -1    0    0    0    0 -0.00000000000E+00 -0.00000000000E+00 -0.74505805969E-08  0.93827000000E+00  0.93827000000E+00 0.  1.
     999902    2    1    2    0    0 -0.14676602072E-01  0.18479538904E-01  0.28796180915E-02  0.10201563127E+01  0.10198792645E+01 0.  0.
     999903    2    3    3    0    0  0.12288575637E+00 -0.30214070895E-01 -0.13679446937E-02  0.12812912038E+00  0.20034994831E-01 0.  0.
         14    1    1    2    0    0  0.14676602072E-01 -0.18479538904E-01 -0.28796180915E-02  0.23773687279E-01  0.00000000000E+00 0.  1.
     999901    1    3    3    0    0 -0.13756235844E+00  0.48693609799E-01  0.42475627853E-02  0.89202719235E+00  0.88000000000E+00 0. -1.
        -11    1    4    4    0    0  0.20159611830E-01  0.36218540607E-04 -0.56890278854E-02  0.20953219805E-01  0.51100000000E-03 0.  1.
         11    1    4    4    0    0  0.10272614454E+00 -0.30250289436E-01  0.43210831916E-02  0.10717590057E+00  0.51100000000E-03 0. -1.
</event>
<event>
 8    1  0.1166736E+005  0.1043930E+01  0.7957747E-01            NaN
         13   -1    0    0    0    0  0.00000000000E+00  0.00000000000E+00  0.74505805969E-08  0.10566000000E+00  0.10566000000E+00 0. -1.
     999900   -1    0    0    0    0 -0.00000000000E+00 -0.00000000000E+00 -0.74505805969E-08  0.93827000000E+00  0.93827000000E+00 0. -1.
     999902    2    1    2    0    0  0.58223272534E-02  0.18512476054E-01  0.16665501177E-01  0.10183497304E+01  0.10180284000E+01 0.  0.
     999903    2    3    3    0    0  0.66847004257E-01  0.11093838367E+00 -0.51526046754E-02  0.13113916386E+00  0.19876720389E-01 0.  0.
         14    1    1    2    0    0 -0.58223272534E-02 -0.18512476054E-01 -0.16665501177E-01  0.25580269619E-01  0.00000000000E+00 0.  1.
     999901    1    3    3    0    0 -0.61024677004E-01 -0.92425907617E-01  0.21818105853E-01  0.88721056652E+00  0.88000000000E+00 0. -1.
        -11    1    4    4    0    0  0.29920239646E-01  0.67336438874E-01 -0.65958613652E-02  0.73980965450E-01  0.51100000000E-03 0. -1.
         11    1    4    4    0    0  0.36926764611E-01  0.43601944797E-01  0.14432566898E-02  0.57158198411E-01  0.51100000000E-03 0.  1.
</event>
<event>
 8    1  0.1166736E+005  0.1043930E+01  0.7957747E-01            NaN
         13   -1    0    0    0    0  0.00000000000E+00  0.00000000000E+00  0.74505805969E-08  0.10566000000E+00  0.10566000000E+00 0.  1.
     999900   -1    0    0    0    0 -0.00000000000E+00 -0.00000000000E+00 -0.74505805969E-08  0.93827000000E+00  0.93827000000E+00 0. -1.
     999902    2    1    2    0    0  0.11421027594E-01 -0.20659904037E-01  0.38810915260E-02  0.10200064890E+01  0.10197258961E+01 0.  0.
     999903    2    3    3    0    0 -0.10161436992E-01 -0.98821867883E-01  0.85595126453E-01  0.13250872628E+00  0.19053096699E-01 0.  0.
         14    1    1    2    0    0 -0.11421027594E-01  0.20659904037E-01 -0.38810915260E-02  0.23923510978E-01  0.00000000000E+00 0.  1.
     999901    1    3    3    0    0  0.21582464586E-01  0.78161963847E-01 -0.81714034927E-01  0.88749776274E+00  0.88000000000E+00 0. -1.
        -11    1    4    4    0    0 -0.15822660701E-01 -0.72864393452E-01  0.64157488190E-01  0.98366766932E-01  0.51100000000E-03 0. -1.
         11    1    4    4    0    0  0.56612237095E-02 -0.25957474431E-01  0.21437638263E-01  0.34141959346E-01  0.51100000000E-03 0.  1.
</event>
<event>
 8    1  0.1166736E+005  0.1043930E+01  0.7957747E-01            NaN
         13   -1    0    0    0    0  0.00000000000E+00  0.00000000000E+00  0.74505805969E-08  0.10566000000E+00  0.10566000000E+00 0. -1.
     999900   -1    0    0    0    0 -0.00000000000E+00 -0.00000000000E+00 -0.74505805969E-08  0.93827000000E+00  0.93827000000E+00 0.  1.
     999902    2    1    2    0    0 -0.11574556667E-01  0.13975019762E-01  0.16219210085E-01  0.10195920807E+01  0.10193015632E+01 0.  0.
     999903    2    3    3    0    0  0.81217398186E-01 -0.60419588850E-01 -0.73239572820E-01  0.12709682666E+00  0.23297549966E-01 0.  0.
         14    1    1    2    0    0  0.11574556667E-01 -0.13975019762E-01 -0.16219210085E-01  0.24337919286E-01  0.00000000000E+00 0.  1.
     999901    1    3    3    0    0 -0.92791954853E-01  0.74394608612E-01  0.89458782905E-01  0.89249525406E+00  0.88000000000E+00 0. -1.
        -11    1    4    4    0    0  0.23514727784E-01 -0.57779955978E-02 -0.20366238864E-01  0.31644469697E-01  0.51100000000E-03 0. -1.
         11    1    4    4    0    0  0.57702670402E-01 -0.54641593252E-01 -0.52873333956E-01  0.95452356960E-01  0.51100000000E-03 0.  1.
</event>
<event>
 8    1  0.1166736E+005  0.1043930E+01  0.7957747E-01            NaN
         13   -1    0    0    0    0  0.00000000000E+00  0.00000000000E+00  0.74505805969E-08  0.10566000000E+00  0.10566000000E+00 0.  1.
     999900   -1    0    0    0    0 -0.00000000000E+00 -0.00000000000E+00 -0.74505805969E-08  0.93827000000E+00  0.93827000000E+00 0. -1.
     999902    2    1    2    0    0 -0.32104327495E-02 -0.23930313757E-01  0.40945987961E-02  0.10194405628E+01  0.10191463725E+01 0.  0.
     999903    2    3    3    0    0 -0.58857649588E-01 -0.11212305747E+00 -0.33957775465E-01  0.13246674359E+00  0.18934220610E-01 0.  0.
         14    1    1    2    0    0  0.32104327495E-02  0.23930313757E-01 -0.40945987961E-02  0.24489437198E-01  0.00000000000E+00 0.  1.
     999901    1    3    3    0    0  0.55647216839E-01  0.88192743715E-01  0.38052374261E-01  0.88697381921E+00  0.88000000000E+00 0.  1.
        -11    1    4    4    0    0 -0.44083137408E-01 -0.80223530236E-01 -0.15787789990E-01  0.92890544411E-01  0.51100000000E-03 0. -1.
         11    1    4    4    0    0 -0.14774512180E-01 -0.31899527237E-01 -0.18169985475E-01  0.39576199176E-01  0.51100000000E-03 0.  1.
</event>
<event>
 8    1  0.1166736E+005  0.1043930E+01  0.7957747E-01            NaN
         13   -1    0    0    0    0  0.00000000000E+00  0.00000000000E+00  0.74505805969E-08  0.10566000000E+00  0.10566000000E+00 0.  1.
     999900   -1    0    0    0    0 -0.00000000000E+00 -0.00000000000E+00 -0.74505805969E-08  0.93827000000E+00  0.93827000000E+00 0. -1.
     999902    2    1    2    0    0 -0.12983964960E-01  0.17618958071E-01  0.11836583090E-01  0.10190479637E+01  0.10187441468E+01 0.  0.
     999903    2    3    3    0    0 -0.98102982873E-01 -0.79157915765E-01  0.22357254433E-01  0.12959774306E+00  0.20138453388E-01 0.  0.
         14    1    1    2    0    0  0.12983964960E-01 -0.17618958071E-01 -0.11836583090E-01  0.24882036268E-01  0.00000000000E+00 0.  1.
     999901    1    3    3    0    0  0.85119017913E-01  0.96776873836E-01 -0.10520671344E-01  0.88945022067E+00  0.88000000000E+00 0. -1.
        -11    1    4    4    0    0 -0.67481293451E-01 -0.57422629516E-01  0.24650802205E-01  0.91972857500E-01  0.51100000000E-03 0. -1.
         11    1    4    4    0    0 -0.30621689422E-01 -0.21735286249E-01 -0.22935477719E-02  0.37624885565E-01  0.51100000000E-03 0.  1.
</event>
<event>
 8    1  0.1166736E+005  0.1043930E+01  0.7957747E-01            NaN
         13   -1    0    0    0    0  0.00000000000E+00  0.00000000000E+00  0.74505805969E-08  0.10566000000E+00  0.10566000000E+00 0.  1.
     999900   -1    0    0    0    0 -0.00000000000E+00 -0.00000000000E+00 -0.74505805969E-08  0.93827000000E+00  0.93827000000E+00 0. -1.
     999902    2    1    2    0    0 -0.79534293311E-02  0.22027641018E-01 -0.32403307391E-02  0.10202873743E+01  0.10200134079E+01 0.  0.
     999903    2    3    3    0    0 -0.38114043416E-01 -0.31586709658E-01  0.11832139388E+00  0.12980356527E+00  0.19965289283E-01 0.  0.
         14    1    1    2    0    0  0.79534293311E-02 -0.22027641018E-01  0.32403307391E-02  0.23642625705E-01  0.00000000000E+00 0. -1.
     999901    1    3    3    0    0  0.30160614085E-01  0.53614350676E-01 -0.12156172461E+00  0.89048380902E+00  0.88000000000E+00 0. -1.
        -11    1    4    4    0    0 -0.56151522861E-02  0.23095852170E-02  0.18710459718E-01  0.19677564456E-01  0.51100000000E-03 0.  1.
         11    1    4    4    0    0 -0.32498891130E-01 -0.33896294875E-01  0.99610934158E-01  0.11012600082E+00  0.51100000000E-03 0. -1.
</event>
<event>
 8    1  0.1166736E+005  0.1043930E+01  0.7957747E-01            NaN
         13   -1    0    0    0    0  0.00000000000E+00  0.00000000000E+00  0.74505805969E-08  0.10566000000E+00  0.10566000000E+00 0.  1.
     999900   -1    0    0    0    0 -0.00000000000E+00 -0.00000000000E+00 -0.74505805969E-08  0.93827000000E+00  0.93827000000E+00 0. -1.
     999902    2    1    2    0    0 -0.18663082147E-01  0.15650414324E-02  0.14251927200E-01  0.10203953995E+01  0.10201239601E+01 0.  0.
     999903    2    3    3    0    0 -0.10672609332E+00  0.66770617671E-01 -0.36912300017E-01  0.13212481055E+00  0.15673968627E-01 0.  0.
         14    1    1    2    0    0  0.18663082147E-01 -0.15650414324E-02 -0.14251927200E-01  0.23534600461E-01  0.00000000000E+00 0. -1.
     999901    1    3    3    0    0  0.88063011170E-01 -0.65205576239E-01  0.51164227217E-01  0.88827058898E+00  0.88000000000E+00 0. -1.
        -11    1    4    4    0    0 -0.47390575997E-01  0.38623617617E-01 -0.15936854474E-01  0.63181444924E-01  0.51100000000E-03 0.  1.
         11    1    4    4    0    0 -0.59335517320E-01  0.28147000054E-01 -0.20975445543E-01  0.68943365630E-01  0.51100000000E-03 0. -1.
</event>
<event>
 8    1  0.1166736E+005  0.1043930E+01  0.7957747E-01            NaN
         13   -1    0    0    0    0  0.00000000000E+00  0.00000000000E+00  0.74505805969E-08  0.10566000000E+00  0.10566000000E+00 0. -1.
     999900   -1    0    0    0    0 -0.00000000000E+00 -0.00000000000E+00 -0.74505805969E-08  0.93827000000E+00  0.93827000000E+00 0.  1.
     999902    2    1    2    0    0  0.16227700052E-02  0.25575078180E-01 -0.53600440822E-02  0.10177489366E+01  0.10174121338E+01 0.  0.
     999903    2    3    3    0    0 -0.39726304102E-01 -0.44023608525E-01  0.10991595526E+00  0.12654622168E+00  0.20400285669E-01 0.  0.
         14    1    1    2    0    0 -0.16227700052E-02 -0.25575078180E-01  0.53600440822E-02  0.26181063365E-01  0.00000000000E+00 0. -1.
     999901    1    3    3    0    0  0.41349074108E-01  0.69598686705E-01 -0.11527599934E+00  0.89120271496E+00  0.88000000000E+00 0.  1.
        -11    1    4    4    0    0 -0.23794025549E-01 -0.21281632991E-01  0.77749430038E-01  0.84049381597E-01  0.51100000000E-03 0.  1.
         11    1    4    4    0    0 -0.15932278554E-01 -0.22741975535E-01  0.32166525221E-01  0.42496840082E-01  0.51100000000E-03 0. -1.
</event>
<event>
 8    1  0.1166736E+005  0.1043930E+01  0.7957747E-01            NaN
         13   -1    0    0    0    0  0.00000000000E+00  0.00000000000E+00  0.74505805969E-08  0.10566000000E+00  0.10566000000E+00 0.  1.
     999900   -1    0    0    0    0 -0.00000000000E+00 -0.00000000000E+00 -0.74505805969E-08  0.93827000000E+00  0.93827000000E+00 0.  1.
     999902    2    1    2    0    0  0.11333518977E-01  0.58117751185E-02  0.18758819788E-01  0.10212558142E+01  0.10210040741E+01 0.  0.
     999903    2    3    3    0    0 -0.11741962575E+00  0.10373537698E-01  0.55383722111E-01  0.13112123704E+00  0.15180360119E-01 0.  0.
         14    1    1    2    0    0 -0.11333518977E-01 -0.58117751185E-02 -0.18758819788E-01  0.22674185813E-01  0.00000000000E+00 0. -1.
     999901    1    3    3    0    0  0.12875314473E+00 -0.45617625793E-02 -0.36624902323E-01  0.89013457714E+00  0.88000000000E+00 0. -1.
        -11    1    4    4    0    0 -0.93164484163E-01  0.10029282964E-01  0.37276514764E-01  0.10084645408E+00  0.51100000000E-03 0.  1.
         11    1    4    4    0    0 -0.24255141588E-01  0.34425473396E-03  0.18107207347E-01  0.30274782967E-01  0.51100000000E-03 0. -1.
</event>
<event>
 8    1  0.1166736E+005  0.1043930E+01  0.7957747E-01            NaN
         13   -1    0    0    0    0  0.00000000000E+00  0.00000000000E+00  0.74505805969E-08  0.10566000000E+00  0.10566000000E+00 0.  1.
     999900   -1    0    0    0    0 -0.00000000000E+00 -0.00000000000E+00 -0.74505805969E-08  0.93827000000E+00  0.93827000000E+00 0. -1.
     999902    2    1    2    0    0  0.87276339298E-02  0.18437680335E-01 -0.11130216688E-01  0.10206920704E+01  0.10204275090E+01 0.  0.
     999903    2    3    3    0    0 -0.88207715887E-02  0.11593266546E-01 -0.12961232349E+00  0.13255199010E+00  0.23631881816E-01 0.  0.
         14    1    1    2    0    0 -0.87276339298E-02 -0.18437680335E-01  0.11130216688E-01  0.23237929634E-01  0.00000000000E+00 0.  1.
     999901    1    3    3    0    0  0.17548405519E-01  0.68444137887E-02  0.11848210681E+00  0.88814008026E+00  0.88000000000E+00 0.  1.
        -11    1    4    4    0    0 -0.10050541166E-01  0.58352948799E-02 -0.22986067880E-01  0.25762074482E-01  0.51100000000E-03 0. -1.
         11    1    4    4    0    0  0.12297695776E-02  0.57579716664E-02 -0.10662625561E+00  0.10678991562E+00  0.51100000000E-03 0.  1.
</event>
<event>
 8    1  0.1166736E+005  0.1043930E+01  0.7957747E-01            NaN
         13   -1    0    0    0    0  0.00000000000E+00  0.00000000000E+00  0.74505805969E-08  0.10566000000E+00  0.10566000000E+00 0. -1.
     999900   -1    0    0    0    0 -0.00000000000E+00 -0.00000000000E+00 -0.74505805969E-08  0.93827000000E+00  0.93827000000E+00 0. -1.
     999902    2    1    2    0    0 -0.14789896390E-01 -0.81318066690E-02  0.15103795401E-01  0.10212806744E+01  0.10210294922E+01 0.  0.
     999903    2    3    3    0    0  0.11574277872E+00 -0.31644614463E-01  0.48473298470E-01  0.13071615953E+00  0.18419588694E-01 0.  0.
         14    1    1    2    0    0  0.14789896390E-01  0.81318066690E-02 -0.15103795401E-01  0.22649325607E-01  0.00000000000E+00 0. -1.
     999901    1    3    3    0    0 -0.13053267511E+00  0.23512807794E-01 -0.33369503069E-01  0.89056451486E+00  0.88000000000E+00 0. -1.
        -11    1    4    4    0    0  0.77183924736E-01 -0.29109073175E-01  0.36947834170E-01  0.90388605198E-01  0.51100000000E-03 0. -1.
         11    1    4    4    0    0  0.38558853981E-01 -0.25355412881E-02  0.11525464300E-01  0.40327554331E-01  0.51100000000E-03 0.  1.
</event>
<event>
 8    1  0.1166736E+005  0.1043930E+01  0.7957747E-01            NaN
         13   -1    0    0    0    0  0.00000000000E+00  0.00000000000E+00  0.74505805969E-08  0.10566000000E+00  0.10566000000E+00 0.  1.
     999900   -1    0    0    0    0 -0.00000000000E+00 -0.00000000000E+00 -0.74505805969E-08  0.93827000000E+00  0.93827000000E+00 0. -1.
     999902    2    1    2    0    0  0.53757471226E-02  0.20755958916E-01 -0.91158265106E-02  0.10206317859E+01  0.10203658342E+01 0.  0.
     999903    2    3    3    0    0  0.25512497905E-01 -0.16641770637E-01  0.12437360691E+00  0.12955181881E+00  0.19673423199E-01 0.  0.
         14    1    1    2    0    0 -0.53757471226E-02 -0.20755958916E-01  0.91158265106E-02  0.23298214108E-01  0.00000000000E+00 0.  1.
     999901    1    3    3    0    0 -0.20136750782E-01  0.37397729553E-01 -0.13348943342E+00  0.89107996709E+00  0.88000000000E+00 0. -1.
        -11    1    4    4    0    0  0.20938538835E-01 -0.66172038673E-02  0.53636889257E-01  0.57960217441E-01  0.51100000000E-03 0.  1.
         11    1    4    4    0    0  0.45739590696E-02 -0.10024566770E-01  0.70736717654E-01  0.71591601364E-01  0.51100000000E-03 0. -1.
</event>
<event>
 8    1  0.1166736E+005  0.1043930E+01  0.7957747E-01            NaN
         13   -1    0    0    0    0  0.00000000000E+00  0.00000000000E+00  0.74505805969E-08  0.10566000000E+00  0.10566000000E+00 0. -1.
     999900   -1    0    0    0    0 -0.00000000000E+00 -0.00000000000E+00 -0.74505805969E-08  0.93827000000E+00  0.93827000000E+00 0. -1.
     999902    2    1    2    0    0  0.21032806720E-01  0.14568570119E-02 -0.12441567000E-01  0.10194495184E+01  0.10191555458E+01 0.  0.
     999903    2    3    3    0    0 -0.97994988997E-01 -0.90227596985E-02  0.77513117278E-01  0.12683017973E+00  0.19828844592E-01 0.  0.
         14    1    1    2    0    0 -0.21032806720E-01 -0.14568570119E-02  0.12441567000E-01  0.24480481619E-01  0.00000000000E+00 0. -1.
     999901    1    3    3    0    0  0.11902779572E+00  0.10479616710E-01 -0.89954684278E-01  0.89261933866E+00  0.88000000000E+00 0. -1.
        -11    1    4    4    0    0 -0.32273183182E-01 -0.10986768750E-01  0.32823929424E-01  0.47327992817E-01  0.51100000000E-03 0.  1.
         11    1    4    4    0    0 -0.65721805815E-01  0.19640090511E-02  0.44689187854E-01  0.79502186908E-01  0.51100000000E-03 0. -1.
</event>
<event>
 8    1  0.1166736E+005  0.1043930E+01  0.7957747E-01            NaN
         13   -1    0    0    0    0  0.00000000000E+00  0.00000000000E+00  0.74505805969E-08  0.10566000000E+00  0.10566000000E+00 0.  1.
     999900   -1    0    0    0    0 -0.00000000000E+00 -0.00000000000E+00 -0.74505805969E-08  0.93827000000E+00  0.93827000000E+00 0.  1.
     999902    2    1    2    0    0 -0.16188091922E-02 -0.17122408716E-01 -0.16873177656E-01  0.10198364003E+01  0.10195517553E+01 0.  0.
     999903    2    3    3    0    0  0.10932191842E-02 -0.79998376048E-01  0.10032538854E+00  0.12983850911E+00  0.19796958408E-01 0.  0.
         14    1    1    2    0    0  0.16188091922E-02  0.17122408716E-01  0.16873177656E-01  0.24093599724E-01  0.00000000000E+00 0.  1.
     999901    1    3    3    0    0 -0.27120283765E-02  0.62875967331E-01 -0.11719856620E+00  0.88999789117E+00  0.88000000000E+00 0.  1.
        -11    1    4    4    0    0  0.66976702269E-02 -0.10866391129E-01  0.11931625311E-01  0.17480333126E-01  0.51100000000E-03 0.  1.
         11    1    4    4    0    0 -0.56044510427E-02 -0.69131984919E-01  0.88393763234E-01  0.11235817598E+00  0.51100000000E-03 0. -1.
</event>
<event>
 8    1  0.1166736E+005  0.1043930E+01  0.7957747E-01            NaN
         13   -1    0    0    0    0  0.00000000000E+00  0.00000000000E+00  0.74505805969E-08  0.10566000000E+00  0.10566000000E+00 0. -1.
     999900   -1    0    0    0    0 -0.00000000000E+00 -0.00000000000E+00 -0.74505805969E-08  0.93827000000E+00  0.93827000000E+00 0.  1.
     999902    2    1    2    0    0  0.10552270764E-01  0.17903335920E-01  0.12911137575E-01  0.10194641600E+01  0.10191705432E+01 0.  0.
     999903    2    3    3    0    0 -0.51618490427E-02 -0.99892692940E-01 -0.75556102195E-01  0.12708011120E+00  0.20867086391E-01 0.  0.
         14    1    1    2    0    0 -0.10552270764E-01 -0.17903335920E-01 -0.12911137575E-01  0.24465840039E-01  0.00000000000E+00 0.  1.
     999901    1    3    3    0    0  0.15714119807E-01  0.11779602886E+00  0.88467239770E-01  0.89238404876E+00  0.88000000000E+00 0. -1.
        -11    1    4    4    0    0  0.77509491759E-02 -0.25213409097E-01 -0.18843420478E-01  0.32421117003E-01  0.51100000000E-03 0. -1.
         11    1    4    4    0    0 -0.12912798219E-01 -0.74679283844E-01 -0.56712681717E-01  0.94658994194E-01  0.51100000000E-03 0.  1.
</event>
<event>
 8    1  0.1166736E+005  0.1043930E+01  0.7957747E-01            NaN
         13   -1    0    0    0    0  0.00000000000E+00  0.00000000000E+00  0.74505805969E-08  0.10566000000E+00  0.10566000000E+00 0.  1.
     999900   -1    0    0    0    0 -0.00000000000E+00 -0.00000000000E+00 -0.74505805969E-08  0.93827000000E+00  0.93827000000E+00 0. -1.
     999902    2    1    2    0    0 -0.39912626269E-02 -0.23289009879E-01 -0.39041586786E-02  0.10199810833E+01  0.10196998870E+01 0.  0.
     999903    2    3    3    0    0 -0.28936069884E-01 -0.26943470835E-02 -0.12606113733E+00  0.13095424958E+00  0.20323619075E-01 0.  0.
         14    1    1    2    0    0  0.39912626269E-02  0.23289009879E-01  0.39041586786E-02  0.23948916750E-01  0.00000000000E+00 0. -1.
     999901    1    3    3    0    0  0.24944807257E-01 -0.20594662796E-01  0.12215697865E+00  0.88902683367E+00  0.88000000000E+00 0.  1.
        -11    1    4    4    0    0 -0.19415069394E-01  0.45251728664E-02 -0.10365707505E+00  0.10555791036E+00  0.51100000000E-03 0. -1.
         11    1    4    4    0    0 -0.95210004900E-02 -0.72195199499E-02 -0.22404062277E-01  0.25396339228E-01  0.51100000000E-03 0.  1.
</event>
<event>
 8    1  0.1166736E+005  0.1043930E+01  0.7957747E-01            NaN
         13   -1    0    0    0    0  0.00000000000E+00  0.00000000000E+00  0.74505805969E-08  0.10566000000E+00  0.10566000000E+00 0.  1.
     999900   -1    0    0    0    0 -0.00000000000E+00 -0.00000000000E+00 -0.74505805969E-08  0.93827000000E+00  0.93827000000E+00 0.  1.
     999902    2    1    2    0    0 -0.20673468479E-01 -0.14689843814E-01 -0.99339238707E-02  0.10166927708E+01  0.10163278622E+01 0.  0.
     999903    2    3    3    0    0  0.30001933058E-01  0.11050274749E+00 -0.47304762914E-01  0.12560480611E+00  0.20684620677E-01 0.  0.
         14    1    1    2    0    0  0.20673468479E-01  0.14689843814E-01  0.99339238707E-02  0.27237229185E-01  0.00000000000E+00 0.  1.
     999901    1    3    3    0    0 -0.50675401537E-01 -0.12519259130E+00  0.37370839044E-01  0.89108796471E+00  0.88000000000E+00 0. -1.
        -11    1    4    4    0    0 -0.76898766816E-03  0.12723740870E-01 -0.11773375029E-03  0.12757739063E-01  0.51100000000E-03 0. -1.
         11    1    4    4    0    0  0.30770920727E-01  0.97779006619E-01 -0.47187029164E-01  0.11284706704E+00  0.51100000000E-03 0.  1.
</event>
<event>
 8    1  0.1166736E+005  0.1043930E+01  0.7957747E-01            NaN
         13   -1    0    0    0    0  0.00000000000E+00  0.00000000000E+00  0.74505805969E-08  0.10566000000E+00  0.10566000000E+00 0. -1.
     999900   -1    0    0    0    0 -0.00000000000E+00 -0.00000000000E+00 -0.74505805969E-08  0.93827000000E+00  0.93827000000E+00 0.  1.
     999902    2    1    2    0    0  0.64906377365E-03  0.37922360236E-02  0.22947718107E-01  0.10206619940E+01  0.10203967394E+01 0.  0.
     999903    2    3    3    0    0  0.11706254121E+00  0.55942838096E-01  0.48498024443E-02  0.13128056986E+00  0.19437791810E-01 0.  0.
         14    1    1    2    0    0 -0.64906377365E-03 -0.37922360236E-02 -0.22947718107E-01  0.23268006020E-01  0.00000000000E+00 0.  1.
     999901    1    3    3    0    0 -0.11641347743E+00 -0.52150602073E-01  0.18097915662E-01  0.88938142412E+00  0.88000000000E+00 0. -1.
        -11    1    4    4    0    0  0.58989296180E-01  0.22918811395E-01  0.10822210741E-01  0.64205843549E-01  0.51100000000E-03 0. -1.
         11    1    4    4    0    0  0.58073245025E-01  0.33024026701E-01 -0.59724082969E-02  0.67074726307E-01  0.51100000000E-03 0.  1.
</event>
<event>
 8    1  0.1166736E+005  0.1043930E+01  0.7957747E-01            NaN
         13   -1    0    0    0    0  0.00000000000E+00  0.00000000000E+00  0.74505805969E-08  0.10566000000E+00  0.10566000000E+00 0.  1.
     999900   -1    0    0    0    0 -0.00000000000E+00 -0.00000000000E+00 -0.74505805969E-08  0.93827000000E+00  0.93827000000E+00 0. -1.
     999902    2    1    2    0    0  0.66214305398E-02 -0.15570654546E-01  0.15864345900E-01  0.10207359038E+01  0.10204723511E+01 0.  0.
     999903    2    3    3    0    0 -0.36514703017E-01 -0.11270350848E+00  0.58249321981E-01  0.13332844190E+00  0.18657050906E-01 0.  0.
         14    1    1    2    0    0 -0.66214305398E-02  0.15570654546E-01 -0.15864345900E-01  0.23194096150E-01  0.00000000000E+00 0. -1.
     999901    1    3    3    0    0  0.43136133556E-01  0.97132853929E-01 -0.42384976081E-01  0.88740746195E+00  0.88000000000E+00 0.  1.
        -11    1    4    4    0    0 -0.14938199273E-01 -0.30237574250E-01  0.91221861780E-02  0.34941895995E-01  0.51100000000E-03 0.  1.
         11    1    4    4    0    0 -0.21576503744E-01 -0.82465934226E-01  0.49127135803E-01  0.98386545903E-01  0.51100000000E-03 0. -1.
</event>
<event>
 8    1  0.1166736E+005  0.1043930E+01  0.7957747E-01            NaN
         13   -1    0    0    0    0  0.00000000000E+00  0.00000000000E+00  0.74505805969E-08  0.10566000000E+00  0.10566000000E+00 0. -1.
     999900   -1    0    0    0    0 -0.00000000000E+00 -0.00000000000E+00 -0.74505805969E-08  0.93827000000E+00  0.93827000000E+00 0. -1.
     999902    2    1    2    0    0  0.39803312821E-02 -0.23997272001E-01  0.36634948217E-02  0.10193305428E+01  0.10190336708E+01 0.  0.
     999903    2    3    3    0    0  0.90912004572E-01 -0.85508077943E-01 -0.37585981645E-01  0.13195113443E+00  0.20537085809E-01 0.  0.
         14    1    1    2    0    0 -0.39803312821E-02  0.23997272001E-01 -0.36634948217E-02  0.24599457208E-01  0.00000000000E+00 0. -1.
     999901    1    3    3    0    0 -0.86931673289E-01  0.61510805942E-01  0.41249476466E-01  0.88737940836E+00  0.88000000000E+00 0.  1.
        -11    1    4    4    0    0  0.37295310591E-01 -0.49034313588E-01 -0.19698417267E-01  0.64680699323E-01  0.51100000000E-03 0. -1.
         11    1    4    4    0    0  0.53616693981E-01 -0.36473764356E-01 -0.17887564378E-01  0.67270435111E-01  0.51100000000E-03 0.  1.
</event>
<event>
 8    1  0.1166736E+005  0.1043930E+01  0.7957747E-01            NaN
         13   -1    0    0    0    0  0.00000000000E+00  0.00000000000E+00  0.74505805969E-08  0.10566000000E+00  0.10566000000E+00 0.  1.
     999900   -1    0    0    0    0 -0.00000000000E+00 -0.00000000000E+00 -0.74505805969E-08  0.93827000000E+00  0.93827000000E+00 0. -1.
     999902    2    1    2    0    0 -0.18589482091E-01  0.35671293609E-03  0.14248510850E-01  0.10205053090E+01  0.10202364282E+01 0.  0.
     999903    2    3    3    0    0  0.54245890951E-01  0.52575629447E-01 -0.10191445187E+00  0.12835866143E+00  0.19559574806E-01 0.  0.
         14    1    1    2    0    0  0.18589482091E-01 -0.35671293609E-03 -0.14248510850E-01  0.23424691032E-01  0.00000000000E+00 0. -1.
     999901    1    3    3    0    0 -0.72835373042E-01 -0.52218916511E-01  0.11616296272E+00  0.89214664754E+00  0.88000000000E+00 0.  1.
        -11    1    4    4    0    0  0.49550342204E-01  0.38367659607E-01 -0.87030867638E-01  0.10724712937E+00  0.51100000000E-03 0.  1.
         11    1    4    4    0    0  0.46955487468E-02  0.14207969841E-01 -0.14883584232E-01  0.21111532053E-01  0.51100000000E-03 0. -1.
</event>
<event>
 8    1  0.1166736E+005  0.1043930E+01  0.7957747E-01            NaN
         13   -1    0    0    0    0  0.00000000000E+00  0.00000000000E+00  0.74505805969E-08  0.10566000000E+00  0.10566000000E+00 0. -1.
     999900   -1    0    0    0    0 -0.00000000000E+00 -0.00000000000E+00 -0.74505805969E-08  0.93827000000E+00  0.93827000000E+00 0. -1.
     999902    2    1    2    0    0  0.18658229794E-01 -0.25680888754E-02 -0.12183765205E-01  0.10214985766E+01  0.10212522574E+01 0.  0.
     999903    2    3    3    0    0  0.71078621923E-01  0.63434984418E-01 -0.91982860191E-01  0.13387692370E+00  0.19647299784E-01 0.  0.
         14    1    1    2    0    0 -0.18658229794E-01  0.25680888754E-02  0.12183765205E-01  0.22431423363E-01  0.00000000000E+00 0.  1.
     999901    1    3    3    0    0 -0.52420392129E-01 -0.66003073293E-01  0.79799094986E-01  0.88762165293E+00  0.88000000000E+00 0.  1.
        -11    1    4    4    0    0 -0.26969506932E-03 -0.82337160681E-03 -0.22038789259E-02  0.24225770479E-02  0.51100000000E-03 0.  1.
         11    1    4    4    0    0  0.71348316992E-01  0.64258356024E-01 -0.89778981266E-01  0.13145434666E+00  0.51100000000E-03 0. -1.
</event>
<event>
 8    1  0.1166736E+005  0.1043930E+01  0.7957747E-01            NaN
         13   -1    0    0    0    0  0.00000000000E+00  0.00000000000E+00  0.74505805969E-08  0.10566000000E+00  0.10566000000E+00 0. -1.
     999900   -1    0    0    0    0 -0.00000000000E+00 -0.00000000000E+00 -0.74505805969E-08  0.93827000000E+00  0.93827000000E+00 0. -1.
     999902    2    1    2    0    0 -0.66466718739E-02 -0.21963530217E-01  0.65993058494E-02  0.10200526939E+01  0.10197731967E+01 0.  0.
     999903    2    3    3    0    0  0.12897308722E-01 -0.35987293364E-01  0.12462452035E+00  0.13184743368E+00  0.19774954880E-01 0.  0.
         14    1    1    2    0    0  0.66466718739E-02  0.21963530217E-01 -0.65993058494E-02  0.23877306052E-01  0.00000000000E+00 0. -1.
     999901    1    3    3    0    0 -0.19543980595E-01  0.14023763147E-01 -0.11802521450E+00  0.88820526027E+00  0.88000000000E+00 0. -1.
        -11    1    4    4    0    0 -0.25811586785E-02 -0.18317509862E-01  0.40962527604E-01  0.44948674468E-01  0.51100000000E-03 0. -1.
         11    1    4    4    0    0  0.15478467400E-01 -0.17669783502E-01  0.83661992743E-01  0.86898759213E-01  0.51100000000E-03 0.  1.
</event>
<event>
 8    1  0.1166736E+005  0.1043930E+01  0.7957747E-01            NaN
         13   -1    0    0    0    0  0.00000000000E+00  0.00000000000E+00  0.74505805969E-08  0.10566000000E+00  0.10566000000E+00 0.  1.
     999900   -1    0    0    0    0 -0.00000000000E+00 -0.00000000000E+00 -0.74505805969E-08  0.93827000000E+00  0.93827000000E+00 0. -1.
     999902    2    1    2    0    0  0.29501651281E-02 -0.16138038028E-01 -0.16087821209E-01  0.10209526691E+01  0.10206940750E+01 0.  0.
     999903    2    3    3    0    0  0.54673391616E-01  0.72681182042E-03  0.11576711077E+00  0.12946770654E+00  0.19239415100E-01 0.  0.
         14    1    1    2    0    0 -0.29501651281E-02  0.16138038028E-01  0.16087821209E-01  0.22977330936E-01  0.00000000000E+00 0.  1.
     999901    1    3    3    0    0 -0.51723226488E-01 -0.16864849848E-01 -0.13185493198E+00  0.89148496252E+00  0.88000000000E+00 0. -1.
        -11    1    4    4    0    0  0.38065341281E-01 -0.72983162393E-02  0.68181605174E-01  0.78429764961E-01  0.51100000000E-03 0.  1.
         11    1    4    4    0    0  0.16608050334E-01  0.80251280598E-02  0.47585505601E-01  0.51037941579E-01  0.51100000000E-03 0. -1.
</event>
<event>
 8    1  0.1166736E+005  0.1043930E+01  0.7957747E-01            NaN
         13   -1    0    0    0    0  0.00000000000E+00  0.00000000000E+00  0.74505805969E-08  0.10566000000E+00  0.10566000000E+00 0.  1.
     999900   -1    0    0    0    0 -0.00000000000E+00 -0.00000000000E+00 -0.74505805969E-08  0.93827000000E+00  0.93827000000E+00 0. -1.
     999902    2    1    2    0    0 -0.18057710148E-01 -0.11775107637E-01  0.92984432197E-02  0.10204524554E+01  0.10201823457E+01 0.  0.
     999903    2    3    3    0    0  0.37319528087E-01  0.59838721058E-01 -0.10538142527E+00  0.12840612742E+00  0.20235341664E-01 0.  0.
         14    1    1    2    0    0  0.18057710148E-01  0.11775107637E-01 -0.92984432197E-02  0.23477544632E-01  0.00000000000E+00 0. -1.
     999901    1    3    3    0    0 -0.55377238235E-01 -0.71613828696E-01  0.11467986849E+00  0.89204632795E+00  0.88000000000E+00 0.  1.
        -11    1    4    4    0    0  0.22654614710E-01  0.51933794576E-01 -0.83138015665E-01  0.10061084115E+00  0.51100000000E-03 0.  1.
         11    1    4    4    0    0  0.14664913377E-01  0.79049264826E-02 -0.22243409602E-01  0.27795286269E-01  0.51100000000E-03 0. -1.
</event>
<event>
 8    1  0.1166736E+005  0.1043930E+01  0.7957747E-01            NaN
         13   -1    0    0    0    0  0.00000000000E+00  0.00000000000E+00  0.74505805969E-08  0.10566000000E+00  0.10566000000E+00 0.  1.
     999900   -1    0    0    0    0 -0.00000000000E+00 -0.00000000000E+00 -0.74505805969E-08  0.93827000000E+00  0.93827000000E+00 0.  1.
     999902    2    1    2    0    0  0.20642945804E-01  0.20191321961E-02  0.11285931649E-01  0.10203168604E+01  0.10200435850E+01 0.  0.
     999903    2    3    3    0    0  0.37163078780E-01  0.11556507961E+00 -0.45957967554E-01  0.13102362368E+00  0.17851418152E-01 0.  0.
         14    1    1    2    0    0 -0.20642945804E-01 -0.20191321961E-02 -0.11285931649E-01  0.23613139552E-01  0.00000000000E+00 0. -1.
     999901    1    3    3    0    0 -0.16520132976E-01 -0.11354594742E+00  0.57243899203E-01  0.88929323677E+00  0.88000000000E+00 0. -1.
        -11    1    4    4    0    0  0.11170845174E-01  0.59643284460E-01 -0.17870041287E-01  0.63259059902E-01  0.51100000000E-03 0.  1.
         11    1    4    4    0    0  0.25992233606E-01  0.55921795152E-01 -0.28087926267E-01  0.67764563776E-01  0.51100000000E-03 0. -1.
</event>
<event>
 8    1  0.1166736E+005  0.1043930E+01  0.7957747E-01            NaN
         13   -1    0    0    0    0  0.00000000000E+00  0.00000000000E+00  0.74505805969E-08  0.10566000000E+00  0.10566000000E+00 0.  1.
     999900   -1    0    0    0    0 -0.00000000000E+00 -0.00000000000E+00 -0.74505805969E-08  0.93827000000E+00  0.93827000000E+00 0.  1.
     999902    2    1    2    0    0 -0.19731482538E-01  0.69383952638E-02 -0.10271175717E-01  0.10206282880E+01  0.10203622555E+01 0.  0.
     999903    2    3    3    0    0 -0.11954376101E-01 -0.80270020713E-01  0.99040927036E-01  0.12955313571E+00  0.19716145944E-01 0.  0.
         14    1    1    2    0    0  0.19731482538E-01 -0.69383952638E-02  0.10271175717E-01  0.23301712010E-01  0.00000000000E+00 0.  1.
     999901    1    3    3    0    0 -0.77771064372E-02  0.87208415977E-01 -0.10931210275E+00  0.89107515228E+00  0.88000000000E+00 0.  1.
        -11    1    4    4    0    0  0.52867957172E-02 -0.21703548851E-01  0.29653315114E-01  0.37129159160E-01  0.51100000000E-03 0.  1.
         11    1    4    4    0    0 -0.17241171818E-01 -0.58566471863E-01  0.69387611922E-01  0.92423976550E-01  0.51100000000E-03 0. -1.
</event>
<event>
 7    1  0.1166736E+005  0.1043930E+01  0.7957747E-01            NaN
         13   -1    0    0    0    0  0.00000000000E+00  0.00000000000E+00  0.74505805969E-08  0.10566000000E+00  0.10566000000E+00 0.  1.
     999900   -1    0    0    0    0 -0.00000000000E+00 -0.00000000000E+00 -0.74505805969E-08  0.93827000000E+00  0.93827000000E+00 0.  1.
     999902    2    1    2    0    0 -0.20343508150E-01 -0.17543706217E-01  0.72893949104E-02  0.10160952155E+01  0.10157138926E+01 0.  0.
         14    1    1    2    0    0  0.20343508150E-01  0.17543706217E-01 -0.72893949104E-02  0.27834784530E-01  0.00000000000E+00 0. -1.
     999901    1    3    3    0    0 -0.13393801327E+00  0.11554252979E-01  0.10373248179E-01  0.89026990089E+00  0.88000000000E+00 0.  1.
        -11    1    3    3    0    0  0.80817631758E-01 -0.10978857586E-01  0.17016196550E-01  0.83317687096E-01  0.51100000000E-03 0. -1.
         11    1    3    3    0    0  0.32776873358E-01 -0.18119101610E-01 -0.20100049819E-01  0.42507627480E-01  0.51100000000E-03 0.  1.
</event>
<event>
 8    1  0.1166736E+005  0.1043930E+01  0.7957747E-01            NaN
         13   -1    0    0    0    0  0.00000000000E+00  0.00000000000E+00  0.74505805969E-08  0.10566000000E+00  0.10566000000E+00 0.  1.
     999900   -1    0    0    0    0 -0.00000000000E+00 -0.00000000000E+00 -0.74505805969E-08  0.93827000000E+00  0.93827000000E+00 0.  1.
     999902    2    1    2    0    0 -0.24335104429E-02 -0.62706306508E-02  0.22518152795E-01  0.10204287237E+01  0.10201580614E+01 0.  0.
     999903    2    3    3    0    0 -0.92432599753E-01 -0.88748872592E-01  0.24399889248E-01  0.13199975221E+00  0.20209703240E-01 0.  0.
         14    1    1    2    0    0  0.24335104429E-02  0.62706306508E-02 -0.22518152795E-01  0.23501276287E-01  0.00000000000E+00 0. -1.
     999901    1    3    3    0    0  0.89999089310E-01  0.82478241941E-01 -0.18817364529E-02  0.88842897150E+00  0.88000000000E+00 0.  1.
        -11    1    4    4    0    0 -0.31621446476E-01 -0.17894504857E-01  0.59532520506E-02  0.36821617459E-01  0.51100000000E-03 0. -1.
         11    1    4    4    0    0 -0.60811153277E-01 -0.70854367736E-01  0.18446637197E-01  0.95178134753E-01  0.51100000000E-03 0.  1.
</event>
<event>
 8    1  0.1166736E+005  0.1043930E+01  0.7957747E-01            NaN
         13   -1    0    0    0    0  0.00000000000E+00  0.00000000000E+00  0.74505805969E-08  0.10566000000E+00  0.10566000000E+00 0. -1.
     999900   -1    0    0    0    0 -0.00000000000E+00 -0.00000000000E+00 -0.74505805969E-08  0.93827000000E+00  0.93827000000E+00 0.  1.
     999902    2    1    2    0    0 -0.98685811132E-02 -0.11379988241E-02  0.21943240290E-01  0.10198428721E+01  0.10195583819E+01 0.  0.
     999903    2    3    3    0    0 -0.20170267205E-01 -0.42303637016E-01 -0.11736318169E+00  0.12787481569E+00  0.19529840942E-01 0.  0.
         14    1    1    2    0    0  0.98685811132E-02  0.11379988241E-02 -0.21943240290E-01  0.24087127868E-01  0.00000000000E+00 0.  1.
     999901    1    3    3    0    0  0.10301686092E-01  0.41165638192E-01  0.13930642198E+00  0.89196805644E+00  0.88000000000E+00 0. -1.
        -11    1    4    4    0    0 -0.58531135753E-02 -0.50865506692E-02 -0.40954057214E-01  0.41684863674E-01  0.51100000000E-03 0.  1.
         11    1    4    4    0    0 -0.14317153630E-01 -0.37217086346E-01 -0.76409124479E-01  0.86189952018E-01  0.51100000000E-03 0. -1.
</event>
<event>
 8    1  0.1166736E+005  0.1043930E+01  0.7957747E-01            NaN
         13   -1    0    0    0    0  0.00000000000E+00  0.00000000000E+00  0.74505805969E-08  0.10566000000E+00  0.10566000000E+00 0.  1.
     999900   -1    0    0    0    0 -0.00000000000E+00 -0.00000000000E+00 -0.74505805969E-08  0.93827000000E+00  0.93827000000E+00 0. -1.
     999902    2    1    2    0    0  0.19248351488E-01  0.12658581616E-01 -0.30442746112E-04  0.10208922126E+01  0.10206322403E+01 0.  0.
     999903    2    3    3    0    0  0.22136969626E-01  0.12791929757E+00  0.22343096331E-01  0.13308933353E+00  0.18978003862E-01 0.  0.
         14    1    1    2    0    0 -0.19248351488E-01 -0.12658581616E-01  0.30442746112E-04  0.23037787444E-01  0.00000000000E+00 0.  1.
     999901    1    3    3    0    0 -0.28886181385E-02 -0.11526071595E+00 -0.22373539077E-01  0.88780287903E+00  0.88000000000E+00 0. -1.
        -11    1    4    4    0    0  0.18202165520E-01  0.72360985782E-01  0.20401176458E-01  0.77355673449E-01  0.51100000000E-03 0. -1.
         11    1    4    4    0    0  0.39348041067E-02  0.55558311789E-01  0.19419198727E-02  0.55733660081E-01  0.51100000000E-03 0.  1.
</event>
<event>
 8    1  0.1166736E+005  0.1043930E+01  0.7957747E-01            NaN
         13   -1    0    0    0    0  0.00000000000E+00  0.00000000000E+00  0.74505805969E-08  0.10566000000E+00  0.10566000000E+00 0.  1.
     999900   -1    0    0    0    0 -0.00000000000E+00 -0.00000000000E+00 -0.74505805969E-08  0.93827000000E+00  0.93827000000E+00 0. -1.
     999902    2    1    2    0    0 -0.10529670081E-01  0.74391229953E-02  0.29747169637E-01  0.10115091949E+01  0.10109894870E+01 0.  0.
     999903    2    3    3    0    0 -0.79983429231E-01 -0.87685928644E-01  0.28881586490E-01  0.12366160135E+00  0.19284049802E-01 0.  0.
         14    1    1    2    0    0  0.10529670081E-01 -0.74391229953E-02 -0.29747169637E-01  0.32420805116E-01  0.00000000000E+00 0. -1.
     999901    1    3    3    0    0  0.69453759150E-01  0.95125051639E-01  0.86558314700E-03  0.88784759353E+00  0.88000000000E+00 0.  1.
        -11    1    4    4    0    0 -0.25859801597E-01 -0.16003065934E-01  0.77425617166E-02  0.31385280640E-01  0.51100000000E-03 0.  1.
         11    1    4    4    0    0 -0.54123627634E-01 -0.71682862710E-01  0.21139024773E-01  0.92276320711E-01  0.51100000000E-03 0. -1.
</event>
<event>
 8    1  0.1166736E+005  0.1043930E+01  0.7957747E-01            NaN
         13   -1    0    0    0    0  0.00000000000E+00  0.00000000000E+00  0.74505805969E-08  0.10566000000E+00  0.10566000000E+00 0.  1.
     999900   -1    0    0    0    0 -0.00000000000E+00 -0.00000000000E+00 -0.74505805969E-08  0.93827000000E+00  0.93827000000E+00 0.  1.
     999902    2    1    2    0    0  0.18016908281E-02  0.13181531054E-01  0.18964032904E-01  0.10207646510E+01  0.10205017586E+01 0.  0.
     999903    2    3    3    0    0 -0.42635714240E-01  0.25974120219E-01 -0.11735932106E+00  0.12906829564E+00  0.19823108967E-01 0.  0.
         14    1    1    2    0    0 -0.18016908281E-02 -0.13181531054E-01 -0.18964032904E-01  0.23165349009E-01  0.00000000000E+00 0. -1.
     999901    1    3    3    0    0  0.44437405069E-01 -0.12792589166E-01  0.13632335397E+00  0.89169635535E+00  0.88000000000E+00 0.  1.
        -11    1    4    4    0    0 -0.18648507569E-01  0.12921285977E-01 -0.30503472448E-01  0.38019066510E-01  0.51100000000E-03 0.  1.
         11    1    4    4    0    0 -0.23987206671E-01  0.13052834242E-01 -0.86855848616E-01  0.91049229131E-01  0.51100000000E-03 0. -1.
</event>
<event>
 8    1  0.1166736E+005  0.1043930E+01  0.7957747E-01            NaN
         13   -1    0    0    0    0  0.00000000000E+00  0.00000000000E+00  0.74505805969E-08  0.10566000000E+00  0.10566000000E+00 0. -1.
     999900   -1    0    0    0    0 -0.00000000000E+00 -0.00000000000E+00 -0.74505805969E-08  0.93827000000E+00  0.93827000000E+00 0.  1.
     999902    2    1    2    0    0  0.99656560246E-02  0.20039395671E-01  0.56026517037E-02  0.10208587758E+01  0.10205980398E+01 0.  0.
     999903    2    3    3    0    0 -0.44712092330E-01  0.49750889698E-02 -0.12033778317E+00  0.13008518919E+00  0.20421843166E-01 0.  0.
         14    1    1    2    0    0 -0.99656560246E-02 -0.20039395671E-01 -0.56026517037E-02  0.23071224175E-01  0.00000000000E+00 0.  1.
     999901    1    3    3    0    0  0.54677748354E-01  0.15064306701E-01  0.12594043488E+00  0.89077358663E+00  0.88000000000E+00 0. -1.
        -11    1    4    4    0    0 -0.83239933747E-02  0.16321990435E-02 -0.70268665433E-02  0.11026827007E-01  0.51100000000E-03 0. -1.
         11    1    4    4    0    0 -0.36388098955E-01  0.33428899263E-02 -0.11331091663E+00  0.11905836219E+00  0.51100000000E-03 0.  1.
</event>
<event>
 8    1  0.1166736E+005  0.1043930E+01  0.7957747E-01            NaN
         13   -1    0    0    0    0  0.00000000000E+00  0.00000000000E+00  0.74505805969E-08  0.10566000000E+00  0.10566000000E+00 0.  1.
     999900   -1    0    0    0    0 -0.00000000000E+00 -0.00000000000E+00 -0.74505805969E-08  0.93827000000E+00  0.93827000000E+00 0.  1.
     999902    2    1    2    0    0 -0.21716495835E-01  0.74138471747E-02  0.56818488382E-02  0.10202898916E+01  0.10200159842E+01 0.  0.
     999903    2    3    3    0    0  0.78707262168E-02 -0.87846158914E-01 -0.92345969745E-01  0.12924593883E+00  0.19945892011E-01 0.  0.
         14    1    1    2    0    0  0.21716495835E-01 -0.74138471747E-02 -0.56818488382E-02  0.23640108449E-01  0.00000000000E+00 0. -1.
     999901    1    3    3    0    0 -0.29587222051E-01  0.95260006089E-01  0.98027818583E-01  0.89104395272E+00  0.88000000000E+00 0. -1.
        -11    1    4    4    0    0 -0.53348932608E-03 -0.66877254575E-01 -0.60412642791E-01  0.90126579433E-01  0.51100000000E-03 0.  1.
         11    1    4    4    0    0  0.84042155428E-02 -0.20968904339E-01 -0.31933326954E-01  0.39119359394E-01  0.51100000000E-03 0. -1.
</event>
<event>
 8    1  0.1166736E+005  0.1043930E+01  0.7957747E-01            NaN
         13   -1    0    0    0    0  0.00000000000E+00  0.00000000000E+00  0.74505805969E-08  0.10566000000E+00  0.10566000000E+00 0. -1.
     999900   -1    0    0    0    0 -0.00000000000E+00 -0.00000000000E+00 -0.74505805969E-08  0.93827000000E+00  0.93827000000E+00 0.  1.
     999902    2    1    2    0    0  0.63108386492E-02  0.30427518332E-02 -0.21637060052E-01  0.10211869265E+01  0.10209336372E+01 0.  0.
     999903    2    3    3    0    0  0.52741738253E-01  0.12494231977E-01  0.11564036747E+00  0.12928432477E+00  0.20098389428E-01 0.  0.
         14    1    1    2    0    0 -0.63108386492E-02 -0.30427518332E-02  0.21637060052E-01  0.22743073470E-01  0.00000000000E+00 0. -1.
     999901    1    3    3    0    0 -0.46430899603E-01 -0.94514801434E-02 -0.13727742752E+00  0.89190260176E+00  0.88000000000E+00 0.  1.
        -11    1    4    4    0    0  0.27034675513E-01  0.16285308140E-01  0.57361995852E-01  0.65473235986E-01  0.51100000000E-03 0.  1.
         11    1    4    4    0    0  0.25707062740E-01 -0.37910761634E-02  0.58278371615E-01  0.63811088788E-01  0.51100000000E-03 0. -1.
</event>
<event>
 8    1  0.1166736E+005  0.1043930E+01  0.7957747E-01            NaN
         13   -1    0    0    0    0  0.00000000000E+00  0.00000000000E+00  0.74505805969E-08  0.10566000000E+00  0.10566000000E+00 0.  1.
     999900   -1    0    0    0    0 -0.00000000000E+00 -0.00000000000E+00 -0.74505805969E-08  0.93827000000E+00  0.93827000000E+00 0. -1.
     999902    2    1    2    0    0  0.34383413425E-02  0.20649636319E-01 -0.10353835002E-01  0.10205755235E+01  0.10203082709E+01 0.  0.
     999903    2    3    3    0    0  0.10799047148E+00 -0.32758993714E-01  0.61276865400E-01  0.12989343272E+00  0.19553926194E-01 0.  0.
         14    1    1    2    0    0 -0.34383413425E-02 -0.20649636319E-01  0.10353835002E-01  0.23354476457E-01  0.00000000000E+00 0.  1.
     999901    1    3    3    0    0 -0.10455213014E+00  0.53408630033E-01 -0.71630700402E-01  0.89068209083E+00  0.88000000000E+00 0. -1.
        -11    1    4    4    0    0  0.76377525940E-01 -0.32098532659E-01  0.46176727136E-01  0.94849320069E-01  0.51100000000E-03 0.  1.
         11    1    4    4    0    0  0.31612945543E-01 -0.66046105431E-03  0.15100138264E-01  0.35044112648E-01  0.51100000000E-03 0. -1.
</event>
<event>
 8    1  0.1166736E+005  0.1043930E+01  0.7957747E-01            NaN
         13   -1    0    0    0    0  0.00000000000E+00  0.00000000000E+00  0.74505805969E-08  0.10566000000E+00  0.10566000000E+00 0. -1.
     999900   -1    0    0    0    0 -0.00000000000E+00 -0.00000000000E+00 -0.74505805969E-08  0.93827000000E+00  0.93827000000E+00 0. -1.
     999902    2    1    2    0    0  0.60373595210E-02 -0.19722031421E-01 -0.93951345441E-02  0.10212655612E+01  0.10210140399E+01 0.  0.
     999903    2    3    3    0    0 -0.76511753523E-01  0.73585159778E-01 -0.72831240290E-01  0.13022980012E+00  0.19661818612E-01 0.  0.
         14    1    1    2    0    0 -0.60373595210E-02  0.19722031421E-01  0.93951345441E-02  0.22664438807E-01  0.00000000000E+00 0.  1.
     999901    1    3    3    0    0  0.82549113044E-01 -0.93307191198E-01  0.63436105746E-01  0.89103576107E+00  0.88000000000E+00 0. -1.
        -11    1    4    4    0    0 -0.37294056461E-01  0.46105140943E-01 -0.47946412860E-01  0.76260411066E-01  0.51100000000E-03 0. -1.
         11    1    4    4    0    0 -0.39217697062E-01  0.27480018834E-01 -0.24884827430E-01  0.53969389057E-01  0.51100000000E-03 0.  1.
</event>
<event>
 8    1  0.1166736E+005  0.1043930E+01  0.7957747E-01            NaN
         13   -1    0    0    0    0  0.00000000000E+00  0.00000000000E+00  0.74505805969E-08  0.10566000000E+00  0.10566000000E+00 0.  1.
     999900   -1    0    0    0    0 -0.00000000000E+00 -0.00000000000E+00 -0.74505805969E-08  0.93827000000E+00  0.93827000000E+00 0.  1.
     999902    2    1    2    0    0  0.60943543140E-03 -0.27338879975E-01 -0.11429953151E-01  0.10142916870E+01  0.10138585684E+01 0.  0.
     999903    2    3    3    0    0 -0.64221768215E-01 -0.45908266212E-02 -0.10690615456E+00  0.12646497870E+00  0.20468359790E-01 0.  0.
         14    1    1    2    0    0 -0.60943543140E-03  0.27338879975E-01  0.11429953151E-01  0.29638313023E-01  0.00000000000E+00 0. -1.
     999901    1    3    3    0    0  0.64831203646E-01 -0.22748053353E-01  0.95476201410E-01  0.88782670828E+00  0.88000000000E+00 0. -1.
        -11    1    4    4    0    0 -0.34274857598E-01 -0.11536138276E-01 -0.48999479598E-01  0.60902039962E-01  0.51100000000E-03 0.  1.
         11    1    4    4    0    0 -0.29946910617E-01  0.69453116545E-02 -0.57906674963E-01  0.65562938737E-01  0.51100000000E-03 0. -1.
</event>
<event>
 8    1  0.1166736E+005  0.1043930E+01  0.7957747E-01            NaN
         13   -1    0    0    0    0  0.00000000000E+00  0.00000000000E+00  0.74505805969E-08  0.10566000000E+00  0.10566000000E+00 0.  1.
     999900   -1    0    0    0    0 -0.00000000000E+00 -0.00000000000E+00 -0.74505805969E-08  0.93827000000E+00  0.93827000000E+00 0.  1.
     999902    2    1    2    0    0 -0.60996568282E-02 -0.23649143419E-01 -0.12986604523E-01  0.10162688414E+01  0.10158923261E+01 0.  0.
     999903    2    3    3    0    0  0.29730042865E-02  0.11322876035E+00  0.45570806998E-01  0.12371808981E+00  0.19996909068E-01 0.  0.
         14    1    1    2    0    0  0.60996568282E-02  0.23649143419E-01  0.12986604523E-01  0.27661158597E-01  0.00000000000E+00 0.  1.
     999901    1    3    3    0    0 -0.90726611147E-02 -0.13687790377E+00 -0.58557411521E-01  0.89255075159E+00  0.88000000000E+00 0.  1.
        -11    1    4    4    0    0 -0.12450391169E-02  0.22765146208E-01  0.11157744328E-02  0.22832171992E-01  0.51100000000E-03 0.  1.
         11    1    4    4    0    0  0.42180434034E-02  0.90463614140E-01  0.44455032565E-01  0.10088591782E+00  0.51100000000E-03 0. -1.
</event>
<event>
 8    1  0.1166736E+005  0.1043930E+01  0.7957747E-01            NaN
         13   -1    0    0    0    0  0.00000000000E+00  0.00000000000E+00  0.74505805969E-08  0.10566000000E+00  0.10566000000E+00 0. -1.
     999900   -1    0    0    0    0 -0.00000000000E+00 -0.00000000000E+00 -0.74505805969E-08  0.93827000000E+00  0.93827000000E+00 0.  1.
     999902    2    1    2    0    0 -0.22059930241E-01 -0.80232436587E-02  0.37069642011E-02  0.10201654351E+01  0.10198886020E+01 0.  0.
     999903    2    3    3    0    0  0.42657838236E-01 -0.12615009294E-01 -0.11953730130E+00  0.12921166366E+00  0.20679893686E-01 0.  0.
         14    1    1    2    0    0  0.22059930241E-01  0.80232436587E-02 -0.37069642011E-02  0.23764564894E-01  0.00000000000E+00 0.  1.
     999901    1    3    3    0    0 -0.64717768476E-01  0.45917656357E-02  0.12324426550E+00  0.89095377144E+00  0.88000000000E+00 0. -1.
        -11    1    4    4    0    0  0.11696589664E-01  0.41600736399E-02 -0.46434323866E-01  0.48067910048E-01  0.51100000000E-03 0.  1.
         11    1    4    4    0    0  0.30961248572E-01 -0.16775082934E-01 -0.73102977431E-01  0.81143753616E-01  0.51100000000E-03 0. -1.
</event>
<event>
 8    1  0.1166736E+005  0.1043930E+01  0.7957747E-01            NaN
         13   -1    0    0    0    0  0.00000000000E+00  0.00000000000E+00  0.74505805969E-08  0.10566000000E+00  0.10566000000E+00 0. -1.
     999900   -1    0    0    0    0 -0.00000000000E+00 -0.00000000000E+00 -0.74505805969E-08  0.93827000000E+00  0.93827000000E+00 0.  1.
     999902    2    1    2    0    0 -0.21148836832E-01 -0.70782804605E-02 -0.42846036440E-02  0.10212202404E+01  0.10209677009E+01 0.  0.
     999903    2    3    3    0    0  0.65526350566E-02 -0.93585827365E-01  0.89646355756E-01  0.13157202207E+00  0.21759682447E-01 0.  0.
         14    1    1    2    0    0  0.21148836832E-01  0.70782804605E-02  0.42846036440E-02  0.22709759620E-01  0.00000000000E+00 0. -1.
     999901    1    3    3    0    0 -0.27701471889E-01  0.86507546904E-01 -0.93930959400E-01  0.88964821831E+00  0.88000000000E+00 0.  1.
        -11    1    4    4    0    0 -0.54771080910E-02 -0.18027872006E-01  0.10883133909E-01  0.21764802016E-01  0.51100000000E-03 0. -1.
         11    1    4    4    0    0  0.12029743148E-01 -0.75557955359E-01  0.78763221847E-01  0.10980722005E+00  0.51100000000E-03 0.  1.
</event>
<event>
 8    1  0.1166736E+005  0.1043930E+01  0.7957747E-01            NaN
         13   -1    0    0    0    0  0.00000000000E+00  0.00000000000E+00  0.74505805969E-08  0.10566000000E+00  0.10566000000E+00 0. -1.
     999900   -1    0    0    0    0 -0.00000000000E+00 -0.00000000000E+00 -0.74505805969E-08  0.93827000000E+00  0.93827000000E+00 0.  1.
     999902    2    1    2    0    0  0.21022615054E-01  0.49297553484E-02  0.91918114037E-02  0.10204621022E+01  0.10201922171E+01 0.  0.
     999903    2    3    3    0    0  0.12631525680E+00 -0.19595384363E-01  0.32954631120E-01  0.13352766577E+00  0.20102403409E-01 0.  0.
         14    1    1    2    0    0 -0.21022615054E-01 -0.49297553484E-02 -0.91918114037E-02  0.23467897826E-01  0.00000000000E+00 0.  1.
     999901    1    3    3    0    0 -0.10529264175E+00  0.24525139712E-01 -0.23762819716E-01  0.88693443641E+00  0.88000000000E+00 0.  1.
        -11    1    4    4    0    0  0.79869157147E-01 -0.26536583563E-02  0.21973640231E-01  0.82880794832E-01  0.51100000000E-03 0. -1.
         11    1    4    4    0    0  0.46446099658E-01 -0.16941726007E-01  0.10980990889E-01  0.50646870934E-01  0.51100000000E-03 0.  1.
</event>
<event>
 8    1  0.1166736E+005  0.1043930E+01  0.7957747E-01            NaN
         13   -1    0    0    0    0  0.00000000000E+00  0.00000000000E+00  0.74505805969E-08  0.10566000000E+00  0.10566000000E+00 0.  1.
     999900   -1    0    0    0    0 -0.00000000000E+00 -0.00000000000E+00 -0.74505805969E-08  0.93827000000E+00  0.93827000000E+00 0.  1.
     999902    2    1    2    0    0 -0.11538649473E-01  0.14299980053E-01  0.15620411435E-01  0.10198130534E+01  0.10195278499E+01 0.  0.
     999903    2    3    3    0    0 -0.46119739834E-01  0.11940092400E+00 -0.25542317953E-01  0.13192993577E+00  0.19222041801E-01 0.  0.
         14    1    1    2    0    0  0.11538649473E-01 -0.14299980053E-01 -0.15620411435E-01  0.24116946626E-01  0.00000000000E+00 0. -1.
     999901    1    3    3    0    0  0.34581090361E-01 -0.10510094395E+00  0.41162729388E-01  0.88788311760E+00  0.88000000000E+00 0. -1.
        -11    1    4    4    0    0 -0.23417138532E-01  0.69936702182E-01 -0.56122054802E-02  0.73967984024E-01  0.51100000000E-03 0.  1.
         11    1    4    4    0    0 -0.22702601302E-01  0.49464221823E-01 -0.19930112473E-01  0.57961951749E-01  0.51100000000E-03 0. -1.
</event>
<event>
 8    1  0.1166736E+005  0.1043930E+01  0.7957747E-01            NaN
         13   -1    0    0    0    0  0.00000000000E+00  0.00000000000E+00  0.74505805969E-08  0.10566000000E+00  0.10566000000E+00 0.  1.
     999900   -1    0    0    0    0 -0.00000000000E+00 -0.00000000000E+00 -0.74505805969E-08  0.93827000000E+00  0.93827000000E+00 0.  1.
     999902    2    1    2    0    0 -0.92693870286E-02 -0.77054631714E-02  0.20023215891E-01  0.10205585458E+01  0.10202908999E+01 0.  0.
     999903    2    3    3    0    0 -0.12813369773E+00  0.24984066254E-01 -0.87474381713E-02  0.13150000988E+00  0.13163846781E-01 0.  0.
         14    1    1    2    0    0  0.92693870286E-02  0.77054631714E-02 -0.20023215891E-01  0.23371454238E-01  0.00000000000E+00 0. -1.
     999901    1    3    3    0    0  0.11886431070E+00 -0.32689529426E-01  0.28770654062E-01  0.88905853588E+00  0.88000000000E+00 0.  1.
        -11    1    4    4    0    0 -0.83127735467E-01  0.22532031096E-01 -0.62487784355E-02  0.86355203561E-01  0.51100000000E-03 0.  1.
         11    1    4    4    0    0 -0.45005962266E-01  0.24520351580E-02 -0.24986597359E-02  0.45144806317E-01  0.51100000000E-03 0. -1.
</event>
<event>
 8    1  0.1166736E+005  0.1043930E+01  0.7957747E-01            NaN
         13   -1    0    0    0    0  0.00000000000E+00  0.00000000000E+00  0.74505805969E-08  0.10566000000E+00  0.10566000000E+00 0.  1.
     999900   -1    0    0    0    0 -0.00000000000E+00 -0.00000000000E+00 -0.74505805969E-08  0.93827000000E+00  0.93827000000E+00 0. -1.
     999902    2    1    2    0    0 -0.87433661074E-02 -0.18317663852E-01  0.11670519618E-01  0.10205166643E+01  0.10202480472E+01 0.  0.
     999903    2    3    3    0    0  0.66753357659E-01 -0.84730249240E-01 -0.71662348654E-01  0.13087923607E+00  0.18938223893E-01 0.  0.
         14    1    1    2    0    0  0.87433661074E-02  0.18317663852E-01 -0.11670519618E-01  0.23413335688E-01  0.00000000000E+00 0. -1.
     999901    1    3    3    0    0 -0.75496723766E-01  0.66412585388E-01  0.83332868273E-01  0.88963742824E+00  0.88000000000E+00 0. -1.
        -11    1    4    4    0    0  0.24026171323E-01 -0.21753355501E-01 -0.29744373328E-01  0.43993797854E-01  0.51100000000E-03 0. -1.
         11    1    4    4    0    0  0.42727186336E-01 -0.62976893739E-01 -0.41917975327E-01  0.86885438214E-01  0.51100000000E-03 0.  1.
</event>
<event>
 8    1  0.1166736E+005  0.1043930E+01  0.7957747E-01            NaN
         13   -1    0    0    0    0  0.00000000000E+00  0.00000000000E+00  0.74505805969E-08  0.10566000000E+00  0.10566000000E+00 0.  1.
     999900   -1    0    0    0    0 -0.00000000000E+00 -0.00000000000E+00 -0.74505805969E-08  0.93827000000E+00  0.93827000000E+00 0. -1.
     999902    2    1    2    0    0  0.73227739473E-02  0.19089677342E-01 -0.11873529905E-01  0.10202864065E+01  0.10200124175E+01 0.  0.
     999903    2    3    3    0    0 -0.58347301017E-01 -0.36745183223E-02 -0.11578372866E+00  0.13145115929E+00  0.21345393788E-01 0.  0.
         14    1    1    2    0    0 -0.73227739473E-02 -0.19089677342E-01  0.11873529905E-01  0.23643593460E-01  0.00000000000E+00 0.  1.
     999901    1    3    3    0    0  0.65670074964E-01  0.22764195664E-01  0.10391019875E+00  0.88883524725E+00  0.88000000000E+00 0.  1.
        -11    1    4    4    0    0 -0.32793298895E-01 -0.85327751058E-02 -0.47260653039E-01  0.58155301994E-01  0.51100000000E-03 0. -1.
         11    1    4    4    0    0 -0.25554002122E-01  0.48582567834E-02 -0.68523075619E-01  0.73295857295E-01  0.51100000000E-03 0.  1.
</event>
<event>
 8    1  0.1166736E+005  0.1043930E+01  0.7957747E-01            NaN
         13   -1    0    0    0    0  0.00000000000E+00  0.00000000000E+00  0.74505805969E-08  0.10566000000E+00  0.10566000000E+00 0. -1.
     999900   -1    0    0    0    0 -0.00000000000E+00 -0.00000000000E+00 -0.74505805969E-08  0.93827000000E+00  0.93827000000E+00 0.  1.
     999902    2    1    2    0    0  0.10237891643E-01  0.72713611691E-02  0.19975027327E-01  0.10203357457E+01  0.10200629123E+01 0.  0.
     999903    2    3    3    0    0 -0.58955823219E-02 -0.12736664046E+00  0.14197352766E-01  0.12993074686E+00  0.20577054201E-01 0.  0.
         14    1    1    2    0    0 -0.10237891643E-01 -0.72713611691E-02 -0.19975027327E-01  0.23594254285E-01  0.00000000000E+00 0.  1.
     999901    1    3    3    0    0  0.16133473965E-01  0.13463800163E+00  0.57776745619E-02  0.89040499886E+00  0.88000000000E+00 0. -1.
        -11    1    4    4    0    0 -0.17411150030E-02 -0.10920442778E+00  0.54862130844E-02  0.10935720453E+00  0.51100000000E-03 0. -1.
         11    1    4    4    0    0 -0.41544673189E-02 -0.18162212685E-01  0.87111396811E-02  0.20573542327E-01  0.51100000000E-03 0.  1.
</event>
<event>
 8    1  0.1166736E+005  0.1043930E+01  0.7957747E-01            NaN
         13   -1    0    0    0    0  0.00000000000E+00  0.00000000000E+00  0.74505805969E-08  0.10566000000E+00  0.10566000000E+00 0. -1.
     999900   -1    0    0    0    0 -0.00000000000E+00 -0.00000000000E+00 -0.74505805969E-08  0.93827000000E+00  0.93827000000E+00 0. -1.
     999902    2    1    2    0    0  0.17911995660E-01 -0.34163508751E-02 -0.16113799698E-01  0.10195955474E+01  0.10193051137E+01 0.  0.
     999903    2    3    3    0    0 -0.43594913614E-01 -0.33882305871E-01 -0.11725397604E+00  0.13114711922E+00  0.20063520068E-01 0.  0.
         14    1    1    2    0    0 -0.17911995660E-01  0.34163508751E-02  0.16113799698E-01  0.24334452584E-01  0.00000000000E+00 0.  1.
     999901    1    3    3    0    0  0.61506909275E-01  0.30465954996E-01  0.10114017634E+00  0.88844842820E+00  0.88000000000E+00 0.  1.
        -11    1    4    4    0    0 -0.32881124549E-01 -0.32710962827E-01 -0.81208790425E-01  0.93521677722E-01  0.51100000000E-03 0.  1.
         11    1    4    4    0    0 -0.10713789065E-01 -0.11713430445E-02 -0.36045185614E-01  0.37625441494E-01  0.51100000000E-03 0. -1.
</event>
<event>
 8    1  0.1166736E+005  0.1043930E+01  0.7957747E-01            NaN
         13   -1    0    0    0    0  0.00000000000E+00  0.00000000000E+00  0.74505805969E-08  0.10566000000E+00  0.10566000000E+00 0. -1.
     999900   -1    0    0    0    0 -0.00000000000E+00 -0.00000000000E+00 -0.74505805969E-08  0.93827000000E+00  0.93827000000E+00 0. -1.
     999902    2    1    2    0    0  0.22235398361E-01  0.27255666213E-02  0.60149945987E-02  0.10207347028E+01  0.10204711224E+01 0.  0.
     999903    2    3    3    0    0 -0.42708369729E-01  0.78819702009E-01 -0.91658575513E-01  0.12969702862E+00  0.19582504888E-01 0.  0.
         14    1    1    2    0    0 -0.22235398361E-01 -0.27255666213E-02 -0.60149945987E-02  0.23195297233E-01  0.00000000000E+00 0.  1.
     999901    1    3    3    0    0  0.64943768090E-01 -0.76094135388E-01  0.97673570112E-01  0.89103767415E+00  0.88000000000E+00 0.  1.
        -11    1    4    4    0    0 -0.70227203445E-02  0.14780568535E-01 -0.72781906125E-02  0.17916946918E-01  0.51100000000E-03 0. -1.
         11    1    4    4    0    0 -0.35685649384E-01  0.64039133474E-01 -0.84380384901E-01  0.11178008170E+00  0.51100000000E-03 0.  1.
</event>
<event>
 8    1  0.1166736E+005  0.1043930E+01  0.7957747E-01            NaN
         13   -1    0    0    0    0  0.00000000000E+00  0.00000000000E+00  0.74505805969E-08  0.10566000000E+00  0.10566000000E+00 0.  1.
     999900   -1    0    0    0    0 -0.00000000000E+00 -0.00000000000E+00 -0.74505805969E-08  0.93827000000E+00  0.93827000000E+00 0. -1.
     999902    2    1    2    0    0  0.85469595714E-02 -0.15230972508E-01 -0.15473411699E-01  0.10205963438E+01  0.10203295730E+01 0.  0.
     999903    2    3    3    0    0  0.12388036103E+00  0.17893418147E-01 -0.37335226156E-01  0.13218373827E+00  0.20300327317E-01 0.  0.
         14    1    1    2    0    0 -0.85469595714E-02  0.15230972508E-01  0.15473411699E-01  0.23333656187E-01  0.00000000000E+00 0. -1.
     999901    1    3    3    0    0 -0.11533340146E+00 -0.33124390655E-01  0.21861814458E-01  0.88841260554E+00  0.88000000000E+00 0.  1.
        -11    1    4    4    0    0  0.71205972882E-01  0.20079099416E-02 -0.27117666619E-01  0.76223036152E-01  0.51100000000E-03 0.  1.
         11    1    4    4    0    0  0.52674388152E-01  0.15885508205E-01 -0.10217559538E-01  0.55960702122E-01  0.51100000000E-03 0. -1.
</event>
<event>
 8    1  0.1166736E+005  0.1043930E+01  0.7957747E-01            NaN
         13   -1    0    0    0    0  0.00000000000E+00  0.00000000000E+00  0.74505805969E-08  0.10566000000E+00  0.10566000000E+00 0. -1.
     999900   -1    0    0    0    0 -0.00000000000E+00 -0.00000000000E+00 -0.74505805969E-08  0.93827000000E+00  0.93827000000E+00 0. -1.
     999902    2    1    2    0    0 -0.54000595450E-02  0.64779717471E-02 -0.23011597022E-01  0.10194216676E+01  0.10191270176E+01 0.  0.
     999903    2    3    3    0    0  0.88708374897E-01  0.22421378430E-01 -0.92402061857E-01  0.13154463427E+00  0.19848319377E-01 0.  0.
         14    1    1    2    0    0  0.54000595450E-02 -0.64779717471E-02  0.23011597022E-01  0.24508332431E-01  0.00000000000E+00 0. -1.
     999901    1    3    3    0    0 -0.94108434442E-01 -0.15943406683E-01  0.69390464835E-01  0.88787703330E+00  0.88000000000E+00 0.  1.
        -11    1    4    4    0    0  0.33999291215E-01  0.11294658150E-01 -0.49632441671E-01  0.61214062870E-01  0.51100000000E-03 0. -1.
         11    1    4    4    0    0  0.54709083682E-01  0.11126720280E-01 -0.42769620186E-01  0.70330571399E-01  0.51100000000E-03 0.  1.
</event>
<event>
 8    1  0.1166736E+005  0.1043930E+01  0.7957747E-01            NaN
         13   -1    0    0    0    0  0.00000000000E+00  0.00000000000E+00  0.74505805969E-08  0.10566000000E+00  0.10566000000E+00 0.  1.
     999900   -1    0    0    0    0 -0.00000000000E+00 -0.00000000000E+00 -0.74505805969E-08  0.93827000000E+00  0.93827000000E+00 0. -1.
     999902    2    1    2    0    0  0.53231748325E-02  0.27606781268E-02 -0.22723188006E-01  0.10204289190E+01  0.10201582612E+01 0.  0.
     999903    2    3    3    0    0 -0.46520582645E-01  0.45233302339E-01 -0.11454278723E+00  0.13311694581E+00  0.19744743730E-01 0.  0.
         14    1    1    2    0    0 -0.53231748325E-02 -0.27606781268E-02  0.22723188006E-01  0.23501080978E-01  0.00000000000E+00 0.  1.
     999901    1    3    3    0    0  0.51843757478E-01 -0.42472624212E-01  0.91819599229E-01  0.88731197321E+00  0.88000000000E+00 0.  1.
        -11    1    4    4    0    0 -0.69307702458E-04  0.33758464190E-02 -0.16362451827E-01  0.16715025976E-01  0.51100000000E-03 0.  1.
         11    1    4    4    0    0 -0.46451274943E-01  0.41857455920E-01 -0.98180335408E-01  0.11640191984E+00  0.51100000000E-03 0. -1.
</event>
<event>
 8    1  0.1166736E+005  0.1043930E+01  0.7957747E-01            NaN
         13   -1    0    0    0    0  0.00000000000E+00  0.00000000000E+00  0.74505805969E-08  0.10566000000E+00  0.10566000000E+00 0. -1.
     999900   -1    0    0    0    0 -0.00000000000E+00 -0.00000000000E+00 -0.74505805969E-08  0.93827000000E+00  0.93827000000E+00 0. -1.
     999902    2    1    2    0    0 -0.15807218015E-01 -0.12107869308E-02 -0.17625800570E-01  0.10202233977E+01  0.10199479292E+01 0.  0.
     999903    2    3    3    0    0 -0.78817287504E-01  0.99163124379E-01  0.27185918279E-01  0.13114900202E+00  0.20383732038E-01 0.  0.
         14    1    1    2    0    0  0.15807218015E-01  0.12107869308E-02  0.17625800570E-01  0.23706602289E-01  0.00000000000E+00 0.  1.
     999901    1    3    3    0    0  0.63010069489E-01 -0.10037391131E+00 -0.44811718849E-01  0.88907439569E+00  0.88000000000E+00 0.  1.
        -11    1    4    4    0    0 -0.69191774491E-01  0.75308759507E-01  0.25292201771E-01  0.10535116282E+00  0.51100000000E-03 0. -1.
         11    1    4    4    0    0 -0.96255130124E-02  0.23854364872E-01  0.18937165079E-02  0.25797839201E-01  0.51100000000E-03 0.  1.
</event>
<event>
 8    1  0.1166736E+005  0.1043930E+01  0.7957747E-01            NaN
         13   -1    0    0    0    0  0.00000000000E+00  0.00000000000E+00  0.74505805969E-08  0.10566000000E+00  0.10566000000E+00 0. -1.
     999900   -1    0    0    0    0 -0.00000000000E+00 -0.00000000000E+00 -0.74505805969E-08  0.93827000000E+00  0.93827000000E+00 0. -1.
     999902    2    1    2    0    0 -0.39274435627E-02  0.16655049934E-01  0.15164682147E-01  0.10210655497E+01  0.10208095188E+01 0.  0.
     999903    2    3    3    0    0 -0.10901919140E+00 -0.35435801954E-01  0.62532357084E-01  0.13202031526E+00  0.19447051329E-01 0.  0.
         14    1    1    2    0    0  0.39274435627E-02 -0.16655049934E-01 -0.15164682147E-01  0.22864450264E-01  0.00000000000E+00 0.  1.
     999901    1    3    3    0    0  0.10509174784E+00  0.52090851888E-01 -0.47367674937E-01  0.88904523448E+00  0.88000000000E+00 0. -1.
        -11    1    4    4    0    0 -0.98130133796E-01 -0.25249331995E-01  0.55396224438E-01  0.11548183722E+00  0.51100000000E-03 0. -1.
         11    1    4    4    0    0 -0.10889057605E-01 -0.10186469958E-01  0.71361326462E-02  0.16538478040E-01  0.51100000000E-03 0.  1.
</event>
<event>
 8    1  0.1166736E+005  0.1043930E+01  0.7957747E-01            NaN
         13   -1    0    0    0    0  0.00000000000E+00  0.00000000000E+00  0.74505805969E-08  0.10566000000E+00  0.10566000000E+00 0.  1.
     999900   -1    0    0    0    0 -0.00000000000E+00 -0.00000000000E+00 -0.74505805969E-08  0.93827000000E+00  0.93827000000E+00 0. -1.
     999902    2    1    2    0    0 -0.22559710519E-01 -0.58153856000E-02  0.72357773234E-02  0.10195350062E+01  0.10192431080E+01 0.  0.
     999903    2    3    3    0    0 -0.24834657332E-01  0.14356436673E-01 -0.12461129083E+00  0.12948122853E+00  0.20360433672E-01 0.  0.
         14    1    1    2    0    0  0.22559710519E-01  0.58153856000E-02 -0.72357773234E-02  0.24394993787E-01  0.00000000000E+00 0. -1.
     999901    1    3    3    0    0  0.22749468134E-02 -0.20171822273E-01  0.13184706815E+00  0.89005377769E+00  0.88000000000E+00 0.  1.
        -11    1    4    4    0    0 -0.16307121489E-02  0.11541712656E-01 -0.36399325794E-01  0.38223584244E-01  0.51100000000E-03 0.  1.
         11    1    4    4    0    0 -0.23203945183E-01  0.28147240170E-02 -0.88211965036E-01  0.91257644281E-01  0.51100000000E-03 0. -1.
</event>
<event>
 8    1  0.1166736E+005  0.1043930E+01  0.7957747E-01            NaN
         13   -1    0    0    0    0  0.00000000000E+00  0.00000000000E+00  0.74505805969E-08  0.10566000000E+00  0.10566000000E+00 0.  1.
     999900   -1    0    0    0    0 -0.00000000000E+00 -0.00000000000E+00 -0.74505805969E-08  0.93827000000E+00  0.93827000000E+00 0. -1.
     999902    2    1    2    0    0 -0.15510498879E-01  0.17515667444E-01  0.13377189051E-02  0.10204957585E+01  0.10202266559E+01 0.  0.
     999903    2    3    3    0    0 -0.31404611660E-01  0.10919820438E+00  0.66840592438E-01  0.13316890959E+00  0.18862561089E-01 0.  0.
         14    1    1    2    0    0  0.15510498879E-01 -0.17515667444E-01 -0.13377189051E-02  0.23434241472E-01  0.00000000000E+00 0.  1.
     999901    1    3    3    0    0  0.15894112781E-01 -0.91682536938E-01 -0.65502873533E-01  0.88732684894E+00  0.88000000000E+00 0. -1.
        -11    1    4    4    0    0 -0.20087265992E-01  0.59128223830E-01  0.46887705033E-01  0.78092016958E-01  0.51100000000E-03 0.  1.
         11    1    4    4    0    0 -0.11317345668E-01  0.50069980553E-01  0.19952887405E-01  0.55076892635E-01  0.51100000000E-03 0. -1.
</event>
<event>
 8    1  0.1166736E+005  0.1043930E+01  0.7957747E-01            NaN
         13   -1    0    0    0    0  0.00000000000E+00  0.00000000000E+00  0.74505805969E-08  0.10566000000E+00  0.10566000000E+00 0.  1.
     999900   -1    0    0    0    0 -0.00000000000E+00 -0.00000000000E+00 -0.74505805969E-08  0.93827000000E+00  0.93827000000E+00 0.  1.
     999902    2    1    2    0    0 -0.67665556540E-02 -0.10316259087E-01 -0.19919874594E-01  0.10204989761E+01  0.10202299483E+01 0.  0.
     999903    2    3    3    0    0 -0.64120569800E-01  0.99671372351E-01  0.42303631767E-01  0.12962382955E+00  0.31095176280E-01 0.  0.
         14    1    1    2    0    0  0.67665556540E-02  0.10316259087E-01  0.19919874594E-01  0.23431023896E-01  0.00000000000E+00 0.  1.
     999901    1    3    3    0    0  0.57354014146E-01 -0.10998763144E+00 -0.62223506361E-01  0.89087514656E+00  0.88000000000E+00 0.  1.
        -11    1    4    4    0    0 -0.38995058672E-01  0.64368573033E-01  0.10762571410E-01  0.76026454998E-01  0.51100000000E-03 0. -1.
         11    1    4    4    0    0 -0.25125511129E-01  0.35302799318E-01  0.31541060357E-01  0.53597374550E-01  0.51100000000E-03 0.  1.
</event>
<event>
 8    1  0.1166736E+005  0.1043930E+01  0.7957747E-01            NaN
         13   -1    0    0    0    0  0.00000000000E+00  0.00000000000E+00  0.74505805969E-08  0.10566000000E+00  0.10566000000E+00 0.  1.
     999900   -1    0    0    0    0 -0.00000000000E+00 -0.00000000000E+00 -0.74505805969E-08  0.93827000000E+00  0.93827000000E+00 0.  1.
     999902    2    1    2    0    0 -0.56007337389E-02  0.18719311518E-01  0.12745806354E-01  0.10206011247E+01  0.10203344645E+01 0.  0.
     999903    2    3    3    0    0 -0.10233809643E+00  0.20035667583E-01  0.79701057817E-01  0.13277070407E+00  0.20032156292E-01 0.  0.
         14    1    1    2    0    0  0.56007337389E-02 -0.18719311518E-01 -0.12745806354E-01  0.23328875278E-01  0.00000000000E+00 0. -1.
     999901    1    3    3    0    0  0.96737362693E-01 -0.13163560653E-02 -0.66955251463E-01  0.88783042065E+00  0.88000000000E+00 0.  1.
        -11    1    4    4    0    0 -0.71857084432E-01  0.57238830222E-02  0.48685491917E-01  0.86987020090E-01  0.51100000000E-03 0.  1.
         11    1    4    4    0    0 -0.30481012001E-01  0.14311784561E-01  0.31015565899E-01  0.45783683982E-01  0.51100000000E-03 0. -1.
</event>
<event>
 7    1  0.1166736E+005  0.1043930E+01  0.7957747E-01            NaN
         13   -1    0    0    0    0  0.00000000000E+00  0.00000000000E+00  0.74505805969E-08  0.10566000000E+00  0.10566000000E+00 0. -1.
     999900   -1    0    0    0    0 -0.00000000000E+00 -0.00000000000E+00 -0.74505805969E-08  0.93827000000E+00  0.93827000000E+00 0.  1.
     999903    2    1    2    0    0 -0.96681345148E-01 -0.12900040268E-01  0.14099169754E-01  0.10058621281E+00  0.20127247228E-01 0.  0.
         14    1    1    2    0    0  0.92045476021E-02 -0.16623839811E-01  0.52675340523E-01  0.55997921799E-01  0.00000000000E+00 0. -1.
     999901    1    1    2    0    0  0.87476797546E-01  0.29523880079E-01 -0.66774510278E-01  0.88734586539E+00  0.88000000000E+00 0.  1.
        -11    1    3    3    0    0 -0.32436328724E-01 -0.12933774887E-01  0.94052625138E-02  0.36167914481E-01  0.51100000000E-03 0.  1.
         11    1    3    3    0    0 -0.64245016424E-01  0.33734619263E-04  0.46939072407E-02  0.64418298328E-01  0.51100000000E-03 0. -1.
</event>
<event>
 8    1  0.1166736E+005  0.1043930E+01  0.7957747E-01            NaN
         13   -1    0    0    0    0  0.00000000000E+00  0.00000000000E+00  0.74505805969E-08  0.10566000000E+00  0.10566000000E+00 0.  1.
     999900   -1    0    0    0    0 -0.00000000000E+00 -0.00000000000E+00 -0.74505805969E-08  0.93827000000E+00  0.93827000000E+00 0.  1.
     999902    2    1    2    0    0  0.23903209887E-01  0.32959065806E-02  0.60758221513E-03  0.10197929828E+01  0.10195072987E+01 0.  0.
     999903    2    3    3    0    0 -0.38052555523E-01 -0.59743564420E-01 -0.10582557512E+00  0.12898407582E+00  0.20507291278E-01 0.  0.
         14    1    1    2    0    0 -0.23903209887E-01 -0.32959065806E-02 -0.60758221513E-03  0.24137017198E-01  0.00000000000E+00 0.  1.
     999901    1    3    3    0    0  0.61955765410E-01  0.63039471000E-01  0.10643315733E+00  0.89080890698E+00  0.88000000000E+00 0.  1.
        -11    1    4    4    0    0 -0.30773627417E-01 -0.58435409856E-01 -0.91397039917E-01  0.11276255272E+00  0.51100000000E-03 0.  1.
         11    1    4    4    0    0 -0.72789281065E-02 -0.13081545639E-02 -0.14428535201E-01  0.16221523103E-01  0.51100000000E-03 0. -1.
</event>
<event>
 7    1  0.1166736E+005  0.1043930E+01  0.7957747E-01            NaN
         13   -1    0    0    0    0  0.00000000000E+00  0.00000000000E+00  0.74505805969E-08  0.10566000000E+00  0.10566000000E+00 0.  1.
     999900   -1    0    0    0    0 -0.00000000000E+00 -0.00000000000E+00 -0.74505805969E-08  0.93827000000E+00  0.93827000000E+00 0. -1.
     999903    2    1    2    0    0  0.35690386452E-01  0.10619606840E+00  0.18033301391E-02  0.11383597465E+00  0.20098967497E-01 0.  0.
         14    1    1    2    0    0 -0.52600553820E-02 -0.10800613770E-01  0.41652305720E-01  0.43350155851E-01  0.00000000000E+00 0.  1.
     999901    1    1    2    0    0 -0.30430331070E-01 -0.95395454634E-01 -0.43455635860E-01  0.88674386950E+00  0.88000000000E+00 0.  1.
        -11    1    3    3    0    0  0.81202295227E-02  0.23008307437E-01 -0.79243312839E-02  0.25658848101E-01  0.51100000000E-03 0.  1.
         11    1    3    3    0    0  0.27570156929E-01  0.83187760968E-01  0.97276614230E-02  0.88177126545E-01  0.51100000000E-03 0. -1.
</event>
<event>
 8    1  0.1166736E+005  0.1043930E+01  0.7957747E-01            NaN
         13   -1    0    0    0    0  0.00000000000E+00  0.00000000000E+00  0.74505805969E-08  0.10566000000E+00  0.10566000000E+00 0.  1.
     999900   -1    0    0    0    0 -0.00000000000E+00 -0.00000000000E+00 -0.74505805969E-08  0.93827000000E+00  0.93827000000E+00 0. -1.
     999902    2    1    2    0    0 -0.19847286704E-02 -0.31582527781E-02  0.24248146236E-01  0.10193966288E+01  0.10191013691E+01 0.  0.
     999903    2    3    3    0    0 -0.10191531207E+00  0.65911394723E-01 -0.38425324701E-01  0.12884359740E+00  0.19827360496E-01 0.  0.
         14    1    1    2    0    0  0.19847286704E-02  0.31582527781E-02 -0.24248146236E-01  0.24533371240E-01  0.00000000000E+00 0. -1.
     999901    1    3    3    0    0  0.99930583399E-01 -0.69069647501E-01  0.62673470937E-01  0.89055303136E+00  0.88000000000E+00 0. -1.
        -11    1    4    4    0    0 -0.77744137148E-01  0.39622455222E-01 -0.26773058843E-01  0.91275120485E-01  0.51100000000E-03 0. -1.
         11    1    4    4    0    0 -0.24171174922E-01  0.26288939500E-01 -0.11652265858E-01  0.37568476916E-01  0.51100000000E-03 0.  1.
</event>
<event>
 8    1  0.1166736E+005  0.1043930E+01  0.7957747E-01            NaN
         13   -1    0    0    0    0  0.00000000000E+00  0.00000000000E+00  0.74505805969E-08  0.10566000000E+00  0.10566000000E+00 0.  1.
     999900   -1    0    0    0    0 -0.00000000000E+00 -0.00000000000E+00 -0.74505805969E-08  0.93827000000E+00  0.93827000000E+00 0. -1.
     999902    2    1    2    0    0 -0.20040003488E-02  0.22476192273E-01  0.85057145045E-02  0.10198148094E+01  0.10195296480E+01 0.  0.
     999903    2    3    3    0    0 -0.88005598657E-01  0.52783437198E-01 -0.78598515955E-01  0.13082552324E+00  0.20162196916E-01 0.  0.
         14    1    1    2    0    0  0.20040003488E-02 -0.22476192273E-01 -0.85057145045E-02  0.24115190560E-01  0.00000000000E+00 0.  1.
     999901    1    3    3    0    0  0.86001598308E-01 -0.30307244924E-01  0.87104230460E-01  0.88898928620E+00  0.88000000000E+00 0.  1.
        -11    1    4    4    0    0 -0.64988909731E-02  0.50111897624E-02 -0.14461301080E-01  0.16635442785E-01  0.51100000000E-03 0. -1.
         11    1    4    4    0    0 -0.81506707684E-01  0.47772247435E-01 -0.64137214875E-01  0.11419008046E+00  0.51100000000E-03 0.  1.
</event>
<event>
 8    1  0.1166736E+005  0.1043930E+01  0.7957747E-01            NaN
         13   -1    0    0    0    0  0.00000000000E+00  0.00000000000E+00  0.74505805969E-08  0.10566000000E+00  0.10566000000E+00 0.  1.
     999900   -1    0    0    0    0 -0.00000000000E+00 -0.00000000000E+00 -0.74505805969E-08  0.93827000000E+00  0.93827000000E+00 0.  1.
     999902    2    1    2    0    0  0.43006381643E-03 -0.79362971759E-02 -0.22024456981E-01  0.10205153364E+01  0.10202466884E+01 0.  0.
     999903    2    3    3    0    0  0.12779023458E+00  0.13895856288E-01 -0.16310207426E-01  0.13106049846E+00  0.19682289375E-01 0.  0.
         14    1    1    2    0    0 -0.43006381643E-03  0.79362971759E-02  0.22024456981E-01  0.23414663633E-01  0.00000000000E+00 0.  1.
     999901    1    3    3    0    0 -0.12736017076E+00 -0.21832153464E-01 -0.57142495547E-02  0.88945483790E+00  0.88000000000E+00 0. -1.
        -11    1    4    4    0    0  0.35278453772E-01 -0.14496760189E-02  0.25559353659E-02  0.35404304649E-01  0.51100000000E-03 0. -1.
         11    1    4    4    0    0  0.92511780808E-01  0.15345532307E-01 -0.18866142792E-01  0.95656193814E-01  0.51100000000E-03 0.  1.
</event>
<event>
 7    1  0.1166736E+005  0.1043930E+01  0.7957747E-01            NaN
         13   -1    0    0    0    0  0.00000000000E+00  0.00000000000E+00  0.74505805969E-08  0.10566000000E+00  0.10566000000E+00 0.  1.
     999900   -1    0    0    0    0 -0.00000000000E+00 -0.00000000000E+00 -0.74505805969E-08  0.93827000000E+00  0.93827000000E+00 0.  1.
     999903    2    1    2    0    0 -0.50254915978E-01 -0.94826427093E-01  0.13477945477E-02  0.10921036392E+00  0.20186113597E-01 0.  0.
         14    1    1    2    0    0 -0.16462976589E-01 -0.29078306403E-01 -0.27317262808E-01  0.43160286708E-01  0.00000000000E+00 0. -1.
     999901    1    1    2    0    0  0.66717892567E-01  0.12390473350E+00  0.25969468260E-01  0.89155934937E+00  0.88000000000E+00 0. -1.
        -11    1    3    3    0    0 -0.20420425863E-01 -0.33719922765E-01  0.99637615577E-02  0.40664046147E-01  0.51100000000E-03 0.  1.
         11    1    3    3    0    0 -0.29834490115E-01 -0.61106504328E-01 -0.86159670100E-02  0.68546317772E-01  0.51100000000E-03 0. -1.
</event>
<event>
 8    1  0.1166736E+005  0.1043930E+01  0.7957747E-01            NaN
         13   -1    0    0    0    0  0.00000000000E+00  0.00000000000E+00  0.74505805969E-08  0.10566000000E+00  0.10566000000E+00 0.  1.
     999900   -1    0    0    0    0 -0.00000000000E+00 -0.00000000000E+00 -0.74505805969E-08  0.93827000000E+00  0.93827000000E+00 0. -1.
     999902    2    1    2    0    0 -0.11717635109E-01 -0.99073975321E-02  0.16302790621E-01  0.10215415994E+01  0.10212962346E+01 0.  0.
     999903    2    3    3    0    0 -0.51160797073E-01 -0.63524134495E-01  0.10524074501E+00  0.13455767779E+00  0.19427079568E-01 0.  0.
         14    1    1    2    0    0  0.11717635109E-01  0.99073975321E-02 -0.16302790621E-01  0.22388400578E-01  0.00000000000E+00 0. -1.
     999901    1    3    3    0    0  0.39443161964E-01  0.53616736963E-01 -0.88937954389E-01  0.88698392164E+00  0.88000000000E+00 0. -1.
        -11    1    4    4    0    0 -0.16619672113E-01 -0.86666242787E-02  0.19311101762E-01  0.26916605466E-01  0.51100000000E-03 0.  1.
         11    1    4    4    0    0 -0.34541124960E-01 -0.54857510217E-01  0.85929643248E-01  0.10764107232E+00  0.51100000000E-03 0. -1.
</event>
<event>
 8    1  0.1166736E+005  0.1043930E+01  0.7957747E-01            NaN
         13   -1    0    0    0    0  0.00000000000E+00  0.00000000000E+00  0.74505805969E-08  0.10566000000E+00  0.10566000000E+00 0. -1.
     999900   -1    0    0    0    0 -0.00000000000E+00 -0.00000000000E+00 -0.74505805969E-08  0.93827000000E+00  0.93827000000E+00 0.  1.
     999902    2    1    2    0    0 -0.16118875575E-01  0.16459168618E-01  0.86537480460E-02  0.10193208607E+01  0.10190237521E+01 0.  0.
     999903    2    3    3    0    0 -0.11367714866E+00 -0.39423507710E-01 -0.46444979876E-01  0.13045846417E+00  0.19635876087E-01 0.  0.
         14    1    1    2    0    0  0.16118875575E-01 -0.16459168618E-01 -0.86537480460E-02  0.24609139291E-01  0.00000000000E+00 0.  1.
     999901    1    3    3    0    0  0.97558273089E-01  0.55882676328E-01  0.55098727922E-01  0.88886239654E+00  0.88000000000E+00 0. -1.
        -11    1    4    4    0    0 -0.66931395284E-01 -0.33299229480E-01 -0.28990877637E-01  0.80183430120E-01  0.51100000000E-03 0.  1.
         11    1    4    4    0    0 -0.46745753380E-01 -0.61242782300E-02 -0.17454102239E-01  0.50275034051E-01  0.51100000000E-03 0. -1.
</event>
<event>
 8    1  0.1166736E+005  0.1043930E+01  0.7957747E-01            NaN
         13   -1    0    0    0    0  0.00000000000E+00  0.00000000000E+00  0.74505805969E-08  0.10566000000E+00  0.10566000000E+00 0.  1.
     999900   -1    0    0    0    0 -0.00000000000E+00 -0.00000000000E+00 -0.74505805969E-08  0.93827000000E+00  0.93827000000E+00 0. -1.
     999902    2    1    2    0    0 -0.13852079784E-01 -0.15432091290E-01 -0.11408663501E-01  0.10202617267E+01  0.10199871587E+01 0.  0.
     999903    2    3    3    0    0  0.36110760567E-01  0.10980897795E+00 -0.53152465241E-01  0.12901307692E+00  0.21382020184E-01 0.  0.
         14    1    1    2    0    0  0.13852079784E-01  0.15432091290E-01  0.11408663501E-01  0.23668273253E-01  0.00000000000E+00 0. -1.
     999901    1    3    3    0    0 -0.49962840352E-01 -0.12524106924E+00  0.41743801740E-01  0.89124864983E+00  0.88000000000E+00 0.  1.
        -11    1    4    4    0    0  0.75190434689E-03  0.32742807471E-01 -0.15466076637E-01  0.36223161772E-01  0.51100000000E-03 0. -1.
         11    1    4    4    0    0  0.35358856220E-01  0.77066170479E-01 -0.37686388604E-01  0.92789915145E-01  0.51100000000E-03 0.  1.
</event>
<event>
 8    1  0.1166736E+005  0.1043930E+01  0.7957747E-01            NaN
         13   -1    0    0    0    0  0.00000000000E+00  0.00000000000E+00  0.74505805969E-08  0.10566000000E+00  0.10566000000E+00 0.  1.
     999900   -1    0    0    0    0 -0.00000000000E+00 -0.00000000000E+00 -0.74505805969E-08  0.93827000000E+00  0.93827000000E+00 0. -1.
     999902    2    1    2    0    0 -0.14704893383E-01 -0.17441897456E-01 -0.66914030079E-02  0.10201554642E+01  0.10198783960E+01 0.  0.
     999903    2    3    3    0    0  0.81491381089E-01  0.88481861190E-01 -0.39186186980E-01  0.12800666676E+00  0.19500372638E-01 0.  0.
         14    1    1    2    0    0  0.14704893383E-01  0.17441897456E-01  0.66914030079E-02  0.23774535758E-01  0.00000000000E+00 0.  1.
     999901    1    3    3    0    0 -0.96196274471E-01 -0.10592375865E+00  0.32494783973E-01  0.89214879748E+00  0.88000000000E+00 0. -1.
        -11    1    4    4    0    0  0.27329073420E-01  0.17277865769E-01 -0.12191732790E-01  0.34558680081E-01  0.51100000000E-03 0.  1.
         11    1    4    4    0    0  0.54162307668E-01  0.71203995421E-01 -0.26994454191E-01  0.93447986676E-01  0.51100000000E-03 0. -1.
</event>
<event>
 8    1  0.1166736E+005  0.1043930E+01  0.7957747E-01            NaN
         13   -1    0    0    0    0  0.00000000000E+00  0.00000000000E+00  0.74505805969E-08  0.10566000000E+00  0.10566000000E+00 0. -1.
     999900   -1    0    0    0    0 -0.00000000000E+00 -0.00000000000E+00 -0.74505805969E-08  0.93827000000E+00  0.93827000000E+00 0.  1.
     999902    2    1    2    0    0 -0.20116483309E-01 -0.75107800356E-02  0.68428856322E-02  0.10213931457E+01  0.10211444796E+01 0.  0.
     999903    2    3    3    0    0  0.93756532120E-01 -0.52092379121E-02  0.88215364781E-01  0.13032982523E+00  0.19659330787E-01 0.  0.
         14    1    1    2    0    0  0.20116483309E-01  0.75107800356E-02 -0.68428856322E-02  0.22536854289E-01  0.00000000000E+00 0. -1.
     999901    1    3    3    0    0 -0.11387301543E+00 -0.23015421235E-02 -0.81372479148E-01  0.89106332048E+00  0.88000000000E+00 0.  1.
        -11    1    4    4    0    0  0.60295478553E-01 -0.12754497477E-01  0.56790146893E-01  0.83806943895E-01  0.51100000000E-03 0.  1.
         11    1    4    4    0    0  0.33461053567E-01  0.75452595647E-02  0.31425217888E-01  0.46522881338E-01  0.51100000000E-03 0. -1.
</event>
<event>
 8    1  0.1166736E+005  0.1043930E+01  0.7957747E-01            NaN
         13   -1    0    0    0    0  0.00000000000E+00  0.00000000000E+00  0.74505805969E-08  0.10566000000E+00  0.10566000000E+00 0. -1.
     999900   -1    0    0    0    0 -0.00000000000E+00 -0.00000000000E+00 -0.74505805969E-08  0.93827000000E+00  0.93827000000E+00 0.  1.
     999902    2    1    2    0    0 -0.82652751716E-02  0.10563604281E-01 -0.19492488925E-01  0.10202686046E+01  0.10199941979E+01 0.  0.
     999903    2    3    3    0    0 -0.34927282023E-01  0.12194299546E+00  0.28603822825E-01  0.13154508930E+00  0.19897805634E-01 0.  0.
         14    1    1    2    0    0  0.82652751716E-02 -0.10563604281E-01  0.19492488925E-01  0.23661395427E-01  0.00000000000E+00 0. -1.
     999901    1    3    3    0    0  0.26662006852E-01 -0.11137939118E+00 -0.48096311750E-01  0.88872351527E+00  0.88000000000E+00 0.  1.
        -11    1    4    4    0    0 -0.21001873702E-01  0.98652525012E-01  0.18283182428E-01  0.10250822050E+00  0.51100000000E-03 0. -1.
         11    1    4    4    0    0 -0.13925408321E-01  0.23290470446E-01  0.10320640398E-01  0.29036868800E-01  0.51100000000E-03 0.  1.
</event>
<event>
 8    1  0.1166736E+005  0.1043930E+01  0.7957747E-01            NaN
         13   -1    0    0    0    0  0.00000000000E+00  0.00000000000E+00  0.74505805969E-08  0.10566000000E+00  0.10566000000E+00 0.  1.
     999900   -1    0    0    0    0 -0.00000000000E+00 -0.00000000000E+00 -0.74505805969E-08  0.93827000000E+00  0.93827000000E+00 0.  1.
     999902    2    1    2    0    0 -0.98243091062E-02  0.18297940244E-01  0.11180340852E-01  0.10203433154E+01  0.10200706592E+01 0.  0.
     999903    2    3    3    0    0 -0.27386420178E-01  0.12755060442E+00  0.22002996130E-01  0.13334742919E+00  0.16680297771E-01 0.  0.
         14    1    1    2    0    0  0.98243091062E-02 -0.18297940244E-01 -0.11180340852E-01  0.23586684552E-01  0.00000000000E+00 0.  1.
     999901    1    3    3    0    0  0.17562111072E-01 -0.10925266418E+00 -0.10822655279E-01  0.88699588626E+00  0.88000000000E+00 0.  1.
        -11    1    4    4    0    0 -0.21395286477E-01  0.71999952016E-01  0.18525925254E-01  0.77364219128E-01  0.51100000000E-03 0. -1.
         11    1    4    4    0    0 -0.59911337012E-02  0.55550652406E-01  0.34770708764E-02  0.55983210060E-01  0.51100000000E-03 0.  1.
</event>
<event>
 8    1  0.1166736E+005  0.1043930E+01  0.7957747E-01            NaN
         13   -1    0    0    0    0  0.00000000000E+00  0.00000000000E+00  0.74505805969E-08  0.10566000000E+00  0.10566000000E+00 0.  1.
     999900   -1    0    0    0    0 -0.00000000000E+00 -0.00000000000E+00 -0.74505805969E-08  0.93827000000E+00  0.93827000000E+00 0. -1.
     999902    2    1    2    0    0 -0.35287874950E-02 -0.46800704340E-02  0.24285797256E-01  0.10189468987E+01  0.10186405780E+01 0.  0.
     999903    2    3    3    0    0  0.65400669277E-01  0.33646881374E-01  0.10712171720E+00  0.13154506480E+00  0.20486132105E-01 0.  0.
         14    1    1    2    0    0  0.35287874950E-02  0.46800704340E-02 -0.24285797256E-01  0.24983101265E-01  0.00000000000E+00 0. -1.
     999901    1    3    3    0    0 -0.68929456772E-01 -0.38326951808E-01 -0.82835919943E-01  0.88740183394E+00  0.88000000000E+00 0. -1.
        -11    1    4    4    0    0  0.21501513199E-01  0.32696430320E-02  0.21120576815E-01  0.30320711097E-01  0.51100000000E-03 0. -1.
         11    1    4    4    0    0  0.43899156077E-01  0.30377238342E-01  0.86001140384E-01  0.10122435370E+00  0.51100000000E-03 0.  1.
</event>
<event>
 8    1  0.1166736E+005  0.1043930E+01  0.7957747E-01            NaN
         13   -1    0    0    0    0  0.00000000000E+00  0.00000000000E+00  0.74505805969E-08  0.10566000000E+00  0.10566000000E+00 0.  1.
     999900   -1    0    0    0    0 -0.00000000000E+00 -0.00000000000E+00 -0.74505805969E-08  0.93827000000E+00  0.93827000000E+00 0.  1.
     999902    2    1    2    0    0 -0.93411447161E-03 -0.14648301931E-01 -0.18197308247E-01  0.10205507924E+01  0.10202829669E+01 0.  0.
     999903    2    3    3    0    0 -0.94689850346E-02  0.80792514914E-02  0.12621454234E+00  0.12844980695E+00  0.20354513641E-01 0.  0.
         14    1    1    2    0    0  0.93411447161E-03  0.14648301931E-01  0.18197308247E-01  0.23379207573E-01  0.00000000000E+00 0. -1.
     999901    1    3    3    0    0  0.85348705630E-02 -0.22727553423E-01 -0.14441185058E+00  0.89210098548E+00  0.88000000000E+00 0.  1.
        -11    1    4    4    0    0 -0.34429948717E-02 -0.65158628542E-02  0.55662042547E-01  0.56150109385E-01  0.51100000000E-03 0.  1.
         11    1    4    4    0    0 -0.60259901629E-02  0.14595114346E-01  0.70552499791E-01  0.72299697565E-01  0.51100000000E-03 0. -1.
</event>
<event>
 8    1  0.1166736E+005  0.1043930E+01  0.7957747E-01            NaN
         13   -1    0    0    0    0  0.00000000000E+00  0.00000000000E+00  0.74505805969E-08  0.10566000000E+00  0.10566000000E+00 0. -1.
     999900   -1    0    0    0    0 -0.00000000000E+00 -0.00000000000E+00 -0.74505805969E-08  0.93827000000E+00  0.93827000000E+00 0. -1.
     999902    2    1    2    0    0  0.14354344405E-01  0.27679463690E-02 -0.18356732132E-01  0.10204634633E+01  0.10201936098E+01 0.  0.
     999903    2    3    3    0    0  0.27447843184E-01 -0.82801889945E-01  0.93258027706E-01  0.12919947815E+00  0.19644550117E-01 0.  0.
         14    1    1    2    0    0 -0.14354344405E-01 -0.27679463690E-02  0.18356732132E-01  0.23466536706E-01  0.00000000000E+00 0. -1.
     999901    1    3    3    0    0 -0.13093498779E-01  0.85569836314E-01 -0.11161475984E+00  0.89126398514E+00  0.88000000000E+00 0. -1.
        -11    1    4    4    0    0  0.25006261682E-01 -0.44625060112E-01  0.53850270707E-01  0.74275311440E-01  0.51100000000E-03 0.  1.
         11    1    4    4    0    0  0.24415815017E-02 -0.38176829834E-01  0.39407756999E-01  0.54924166712E-01  0.51100000000E-03 0. -1.
</event>
<event>
 8    1  0.1166736E+005  0.1043930E+01  0.7957747E-01            NaN
         13   -1    0    0    0    0  0.00000000000E+00  0.00000000000E+00  0.74505805969E-08  0.10566000000E+00  0.10566000000E+00 0.  1.
     999900   -1    0    0    0    0 -0.00000000000E+00 -0.00000000000E+00 -0.74505805969E-08  0.93827000000E+00  0.93827000000E+00 0. -1.
     999902    2    1    2    0    0 -0.10867274794E-01  0.97057669453E-02 -0.18620741770E-01  0.10202861510E+01  0.10200121559E+01 0.  0.
     999903    2    3    3    0    0  0.35419174695E-01 -0.10902285077E+00 -0.58423573990E-01  0.13021694830E+00  0.20065884020E-01 0.  0.
         14    1    1    2    0    0  0.10867274794E-01 -0.97057669453E-02  0.18620741770E-01  0.23643849041E-01  0.00000000000E+00 0.  1.
     999901    1    3    3    0    0 -0.46286449489E-01  0.11872861771E+00  0.39802832221E-01  0.89006920266E+00  0.88000000000E+00 0.  1.
        -11    1    4    4    0    0  0.45710058819E-02 -0.14598289417E-01 -0.16175131944E-01  0.22268815934E-01  0.51100000000E-03 0. -1.
         11    1    4    4    0    0  0.30848168813E-01 -0.94424561348E-01 -0.42248442047E-01  0.10794813237E+00  0.51100000000E-03 0.  1.
</event>
<event>
 8    1  0.1166736E+005  0.1043930E+01  0.7957747E-01            NaN
         13   -1    0    0    0    0  0.00000000000E+00  0.00000000000E+00  0.74505805969E-08  0.10566000000E+00  0.10566000000E+00 0.  1.
     999900   -1    0    0    0    0 -0.00000000000E+00 -0.00000000000E+00 -0.74505805969E-08  0.93827000000E+00  0.93827000000E+00 0.  1.
     999902    2    1    2    0    0  0.82093710888E-02 -0.14980491602E-01 -0.17220526455E-01  0.10196739609E+01  0.10193854183E+01 0.  0.
     999903    2    3    3    0    0 -0.65827264474E-01  0.85054477418E-01  0.65760727469E-01  0.12705180849E+00  0.15817581579E-01 0.  0.
         14    1    1    2    0    0 -0.82093710888E-02  0.14980491602E-01  0.17220526455E-01  0.24256039118E-01  0.00000000000E+00 0.  1.
     999901    1    3    3    0    0  0.74036635563E-01 -0.10003496902E+00 -0.82981253924E-01  0.89262215239E+00  0.88000000000E+00 0. -1.
        -11    1    4    4    0    0 -0.18140189855E-01  0.27444467904E-01  0.28339837970E-01  0.43424334695E-01  0.51100000000E-03 0. -1.
         11    1    4    4    0    0 -0.47687074619E-01  0.57610009514E-01  0.37420889499E-01  0.83627473798E-01  0.51100000000E-03 0.  1.
</event>
<event>
 8    1  0.1166736E+005  0.1043930E+01  0.7957747E-01            NaN
         13   -1    0    0    0    0  0.00000000000E+00  0.00000000000E+00  0.74505805969E-08  0.10566000000E+00  0.10566000000E+00 0. -1.
     999900   -1    0    0    0    0 -0.00000000000E+00 -0.00000000000E+00 -0.74505805969E-08  0.93827000000E+00  0.93827000000E+00 0.  1.
     999902    2    1    2    0    0  0.83426457824E-02 -0.22615023523E-01  0.30564529900E-02  0.10196322443E+01  0.10193426964E+01 0.  0.
     999903    2    3    3    0    0 -0.55032887432E-01  0.66863411338E-01 -0.91582992906E-01  0.12779174665E+00  0.21070155368E-01 0.  0.
         14    1    1    2    0    0 -0.83426457824E-02  0.22615023523E-01 -0.30564529900E-02  0.24297755708E-01  0.00000000000E+00 0.  1.
     999901    1    3    3    0    0  0.63375533215E-01 -0.89478434861E-01  0.94639445896E-01  0.89184049764E+00  0.88000000000E+00 0. -1.
        -11    1    4    4    0    0 -0.56107427081E-01  0.67241417518E-01 -0.88695509002E-01  0.12464592268E+00  0.51100000000E-03 0.  1.
         11    1    4    4    0    0  0.10745396491E-02 -0.37800617974E-03 -0.28874839038E-02  0.31458239659E-02  0.51100000000E-03 0. -1.
</event>
<event>
 8    1  0.1166736E+005  0.1043930E+01  0.7957747E-01            NaN
         13   -1    0    0    0    0  0.00000000000E+00  0.00000000000E+00  0.74505805969E-08  0.10566000000E+00  0.10566000000E+00 0.  1.
     999900   -1    0    0    0    0 -0.00000000000E+00 -0.00000000000E+00 -0.74505805969E-08  0.93827000000E+00  0.93827000000E+00 0.  1.
     999902    2    1    2    0    0  0.73442491919E-02 -0.99600929527E-02 -0.17913622594E-01  0.10221575559E+01  0.10219256479E+01 0.  0.
     999903    2    3    3    0    0  0.10609189856E+00  0.49480002567E-01 -0.61080340428E-01  0.13359265183E+00  0.20308299849E-01 0.  0.
         14    1    1    2    0    0 -0.73442491919E-02  0.99600929527E-02  0.17913622594E-01  0.21772444104E-01  0.00000000000E+00 0.  1.
     999901    1    3    3    0    0 -0.98747649364E-01 -0.59440095520E-01  0.43166717834E-01  0.88856490407E+00  0.88000000000E+00 0. -1.
        -11    1    4    4    0    0  0.84427778254E-01  0.39042945247E-01 -0.38735856462E-01  0.10076273622E+00  0.51100000000E-03 0.  1.
         11    1    4    4    0    0  0.21664120302E-01  0.10437057320E-01 -0.22344483966E-01  0.32829915605E-01  0.51100000000E-03 0. -1.
</event>
<event>
 8    1  0.1166736E+005  0.1043930E+01  0.7957747E-01            NaN
         13   -1    0    0    0    0  0.00000000000E+00  0.00000000000E+00  0.74505805969E-08  0.10566000000E+00  0.10566000000E+00 0.  1.
     999900   -1    0    0    0    0 -0.00000000000E+00 -0.00000000000E+00 -0.74505805969E-08  0.93827000000E+00  0.93827000000E+00 0.  1.
     999902    2    1    2    0    0  0.10165425280E-01  0.17407704883E-01  0.10725674546E-01  0.10210957241E+01  0.10208403762E+01 0.  0.
     999903    2    3    3    0    0 -0.57132857601E-01 -0.10208611946E+00 -0.49356142304E-01  0.12844928927E+00  0.19428122071E-01 0.  0.
         14    1    1    2    0    0 -0.10165425280E-01 -0.17407704883E-01 -0.10725674546E-01  0.22834275879E-01  0.00000000000E+00 0.  1.
     999901    1    3    3    0    0  0.67298282882E-01  0.11949382434E+00  0.60081816850E-01  0.89264643485E+00  0.88000000000E+00 0.  1.
        -11    1    4    4    0    0 -0.67830516006E-03 -0.63446691001E-02 -0.70495832261E-02  0.95222197276E-02  0.51100000000E-03 0.  1.
         11    1    4    4    0    0 -0.56454552441E-01 -0.95741450359E-01 -0.42306559077E-01  0.11892706954E+00  0.51100000000E-03 0. -1.
</event>
<event>
 8    1  0.1166736E+005  0.1043930E+01  0.7957747E-01            NaN
         13   -1    0    0    0    0  0.00000000000E+00  0.00000000000E+00  0.74505805969E-08  0.10566000000E+00  0.10566000000E+00 0. -1.
     999900   -1    0    0    0    0 -0.00000000000E+00 -0.00000000000E+00 -0.74505805969E-08  0.93827000000E+00  0.93827000000E+00 0.  1.
     999902    2    1    2    0    0 -0.64685892810E-02 -0.70593759351E-03 -0.23685297280E-01  0.10193671357E+01  0.10190711570E+01 0.  0.
     999903    2    3    3    0    0 -0.46167236613E-01  0.11095251768E+00 -0.48294654685E-01  0.13108271408E+00  0.20209634910E-01 0.  0.
         14    1    1    2    0    0  0.64685892810E-02  0.70593759351E-03  0.23685297280E-01  0.24562864295E-01  0.00000000000E+00 0. -1.
     999901    1    3    3    0    0  0.39698647332E-01 -0.11165845527E+00  0.24609357405E-01  0.88828442163E+00  0.88000000000E+00 0.  1.
        -11    1    4    4    0    0 -0.46025037782E-01  0.95275522208E-01 -0.45363124802E-01  0.11512516427E+00  0.51100000000E-03 0. -1.
         11    1    4    4    0    0 -0.14219883059E-03  0.15676995469E-01 -0.29315298825E-02  0.15957549809E-01  0.51100000000E-03 0.  1.
</event>
<event>
 8    1  0.1166736E+005  0.1043930E+01  0.7957747E-01            NaN
         13   -1    0    0    0    0  0.00000000000E+00  0.00000000000E+00  0.74505805969E-08  0.10566000000E+00  0.10566000000E+00 0. -1.
     999900   -1    0    0    0    0 -0.00000000000E+00 -0.00000000000E+00 -0.74505805969E-08  0.93827000000E+00  0.93827000000E+00 0.  1.
     999902    2    1    2    0    0 -0.18407459355E-01  0.14168233594E-01  0.75459407439E-02  0.10195063511E+01  0.10192137584E+01 0.  0.
     999903    2    3    3    0    0  0.36760577062E-01 -0.49328510691E-02 -0.12106163624E+00  0.12824417166E+00  0.20370929043E-01 0.  0.
         14    1    1    2    0    0  0.18407459355E-01 -0.14168233594E-01 -0.75459407439E-02  0.24423648884E-01  0.00000000000E+00 0.  1.
     999901    1    3    3    0    0 -0.55168036417E-01  0.19101084663E-01  0.12860757698E+00  0.89126217946E+00  0.88000000000E+00 0. -1.
        -11    1    4    4    0    0  0.95954924552E-02 -0.35528990354E-02 -0.66411949257E-01  0.67197505103E-01  0.51100000000E-03 0.  1.
         11    1    4    4    0    0  0.27165084607E-01 -0.13799520337E-02 -0.54649686980E-01  0.61046666554E-01  0.51100000000E-03 0. -1.
</event>
<event>
 8    1  0.1166736E+005  0.1043930E+01  0.7957747E-01            NaN
         13   -1    0    0    0    0  0.00000000000E+00  0.00000000000E+00  0.74505805969E-08  0.10566000000E+00  0.10566000000E+00 0.  1.
     999900   -1    0    0    0    0 -0.00000000000E+00 -0.00000000000E+00 -0.74505805969E-08  0.93827000000E+00  0.93827000000E+00 0.  1.
     999902    2    1    2    0    0 -0.22237142307E-02 -0.19342198279E-01 -0.14251409717E-01  0.10198018377E+01  0.10195163657E+01 0.  0.
     999903    2    3    3    0    0 -0.11864190984E+00 -0.50168432425E-01  0.99328570930E-02  0.13127027843E+00  0.23247579775E-01 0.  0.
         14    1    1    2    0    0  0.22237142307E-02  0.19342198279E-01  0.14251409717E-01  0.24128162345E-01  0.00000000000E+00 0.  1.
     999901    1    3    3    0    0  0.11641819561E+00  0.30826234146E-01 -0.24184266810E-01  0.88853155923E+00  0.88000000000E+00 0.  1.
        -11    1    4    4    0    0 -0.26523117711E-01 -0.21447112804E-01  0.64230921985E-02  0.34712701640E-01  0.51100000000E-03 0. -1.
         11    1    4    4    0    0 -0.92118792132E-01 -0.28721319621E-01  0.35097648946E-02  0.96557576788E-01  0.51100000000E-03 0.  1.
</event>
<event>
 8    1  0.1166736E+005  0.1043930E+01  0.7957747E-01            NaN
         13   -1    0    0    0    0  0.00000000000E+00  0.00000000000E+00  0.74505805969E-08  0.10566000000E+00  0.10566000000E+00 0.  1.
     999900   -1    0    0    0    0 -0.00000000000E+00 -0.00000000000E+00 -0.74505805969E-08  0.93827000000E+00  0.93827000000E+00 0.  1.
     999902    2    1    2    0    0  0.20094549302E-01 -0.42494416343E-03  0.13021773932E-01  0.10199813448E+01  0.10197001548E+01 0.  0.
     999903    2    3    3    0    0 -0.83512078780E-02  0.10142238032E+00 -0.75489861248E-01  0.12924213035E+00  0.25466982602E-01 0.  0.
         14    1    1    2    0    0 -0.20094549302E-01  0.42494416343E-03 -0.13021773932E-01  0.23948655192E-01  0.00000000000E+00 0. -1.
     999901    1    3    3    0    0  0.28445757180E-01 -0.10184732449E+00  0.88511635180E-01  0.89073921446E+00  0.88000000000E+00 0.  1.
        -11    1    4    4    0    0 -0.15836269696E-01  0.63453886101E-01 -0.39580063817E-01  0.76446227324E-01  0.51100000000E-03 0.  1.
         11    1    4    4    0    0  0.74850618184E-02  0.37968494224E-01 -0.35909797431E-01  0.52795903028E-01  0.51100000000E-03 0. -1.
</event>
<event>
 8    1  0.1166736E+005  0.1043930E+01  0.7957747E-01            NaN
         13   -1    0    0    0    0  0.00000000000E+00  0.00000000000E+00  0.74505805969E-08  0.10566000000E+00  0.10566000000E+00 0. -1.
     999900   -1    0    0    0    0 -0.00000000000E+00 -0.00000000000E+00 -0.74505805969E-08  0.93827000000E+00  0.93827000000E+00 0. -1.
     999902    2    1    2    0    0  0.86068760659E-02  0.11325298756E-01  0.19177401071E-01  0.10200529520E+01  0.10197734609E+01 0.  0.
     999903    2    3    3    0    0 -0.39795189426E-03  0.11905348305E+00 -0.49924784080E-01  0.13074897667E+00  0.20710399382E-01 0.  0.
         14    1    1    2    0    0 -0.86068760659E-02 -0.11325298756E-01 -0.19177401071E-01  0.23877047962E-01  0.00000000000E+00 0.  1.
     999901    1    3    3    0    0  0.90048279601E-02 -0.10772818429E+00  0.69102185151E-01  0.88930397537E+00  0.88000000000E+00 0. -1.
        -11    1    4    4    0    0  0.92004070996E-02  0.47220988413E-01 -0.15761176392E-01  0.50627512676E-01  0.51100000000E-03 0.  1.
         11    1    4    4    0    0 -0.95983589939E-02  0.71832494635E-01 -0.34163607687E-01  0.80121463991E-01  0.51100000000E-03 0. -1.
</event>
<event>
 8    1  0.1166736E+005  0.1043930E+01  0.7957747E-01            NaN
         13   -1    0    0    0    0  0.00000000000E+00  0.00000000000E+00  0.74505805969E-08  0.10566000000E+00  0.10566000000E+00 0.  1.
     999900   -1    0    0    0    0 -0.00000000000E+00 -0.00000000000E+00 -0.74505805969E-08  0.93827000000E+00  0.93827000000E+00 0. -1.
     999902    2    1    2    0    0 -0.12253969547E-01  0.15804206044E-01 -0.13469314055E-01  0.10198186931E+01  0.10195336246E+01 0.  0.
     999903    2    3    3    0    0  0.60671339983E-01  0.46274167088E-01 -0.10511264382E+00  0.13153663252E+00  0.20758318041E-01 0.  0.
         14    1    1    2    0    0  0.12253969547E-01 -0.15804206044E-01  0.13469314055E-01  0.24111306880E-01  0.00000000000E+00 0.  1.
     999901    1    3    3    0    0 -0.72925309530E-01 -0.30469961045E-01  0.91643329768E-01  0.88828206060E+00  0.88000000000E+00 0.  1.
        -11    1    4    4    0    0  0.48751977858E-01  0.35659624971E-01 -0.66971969740E-01  0.90187970650E-01  0.51100000000E-03 0.  1.
         11    1    4    4    0    0  0.11919362125E-01  0.10614542118E-01 -0.38140674083E-01  0.41348661869E-01  0.51100000000E-03 0. -1.
</event>
<event>
 8    1  0.1166736E+005  0.1043930E+01  0.7957747E-01            NaN
         13   -1    0    0    0    0  0.00000000000E+00  0.00000000000E+00  0.74505805969E-08  0.10566000000E+00  0.10566000000E+00 0. -1.
     999900   -1    0    0    0    0 -0.00000000000E+00 -0.00000000000E+00 -0.74505805969E-08  0.93827000000E+00  0.93827000000E+00 0.  1.
     999902    2    1    2    0    0  0.17733898219E-01 -0.64610703540E-02 -0.12628463955E-01  0.10212206478E+01  0.10209681174E+01 0.  0.
     999903    2    3    3    0    0 -0.36222075181E-01 -0.59744375207E-01  0.10755932387E+00  0.12981980530E+00  0.20068497636E-01 0.  0.
         14    1    1    2    0    0 -0.17733898219E-01  0.64610703540E-02  0.12628463955E-01  0.22709352215E-01  0.00000000000E+00 0. -1.
     999901    1    3    3    0    0  0.53955973401E-01  0.53283304853E-01 -0.12018778782E+00  0.89140084249E+00  0.88000000000E+00 0.  1.
        -11    1    4    4    0    0 -0.34486671399E-02 -0.18030482680E-01  0.39213316638E-01  0.43300541953E-01  0.51100000000E-03 0.  1.
         11    1    4    4    0    0 -0.32773408041E-01 -0.41713892528E-01  0.68346007232E-01  0.86519263346E-01  0.51100000000E-03 0. -1.
</event>
<event>
 8    1  0.1166736E+005  0.1043930E+01  0.7957747E-01            NaN
         13   -1    0    0    0    0  0.00000000000E+00  0.00000000000E+00  0.74505805969E-08  0.10566000000E+00  0.10566000000E+00 0.  1.
     999900   -1    0    0    0    0 -0.00000000000E+00 -0.00000000000E+00 -0.74505805969E-08  0.93827000000E+00  0.93827000000E+00 0.  1.
     999902    2    1    2    0    0  0.14739393270E-01 -0.10293968208E-01 -0.65295426298E-02  0.10248027832E+01  0.10246242697E+01 0.  0.
     999903    2    3    3    0    0  0.85738608078E-01 -0.10190433685E+00  0.23427778249E-01  0.13669761532E+00  0.20044312305E-01 0.  0.
         14    1    1    2    0    0 -0.14739393270E-01  0.10293968208E-01  0.65295426298E-02  0.19127216797E-01  0.00000000000E+00 0. -1.
     999901    1    3    3    0    0 -0.70999214808E-01  0.91610368645E-01 -0.29957320879E-01  0.88810516788E+00  0.88000000000E+00 0.  1.
        -11    1    4    4    0    0  0.44500391181E-01 -0.41352291213E-01  0.38887581811E-02  0.60874299709E-01  0.51100000000E-03 0.  1.
         11    1    4    4    0    0  0.41238216897E-01 -0.60552045640E-01  0.19539020068E-01  0.75823315611E-01  0.51100000000E-03 0. -1.
</event>
<event>
 8    1  0.1166736E+005  0.1043930E+01  0.7957747E-01            NaN
         13   -1    0    0    0    0  0.00000000000E+00  0.00000000000E+00  0.74505805969E-08  0.10566000000E+00  0.10566000000E+00 0. -1.
     999900   -1    0    0    0    0 -0.00000000000E+00 -0.00000000000E+00 -0.74505805969E-08  0.93827000000E+00  0.93827000000E+00 0.  1.
     999902    2    1    2    0    0  0.13484295069E-01 -0.11841539954E-01  0.14189589801E-01  0.10210522217E+01  0.10207958888E+01 0.  0.
     999903    2    3    3    0    0  0.32260881104E-01 -0.96354162869E-02 -0.12408865231E+00  0.13005373717E+00  0.19554416965E-01 0.  0.
         14    1    1    2    0    0 -0.13484295069E-01  0.11841539954E-01 -0.14189589801E-01  0.22877778317E-01  0.00000000000E+00 0.  1.
     999901    1    3    3    0    0 -0.18776586035E-01 -0.22061236672E-02  0.13827824211E+00  0.89099848451E+00  0.88000000000E+00 0. -1.
        -11    1    4    4    0    0  0.15030943644E-01 -0.54744344189E-02 -0.27230662535E-01  0.31585895620E-01  0.51100000000E-03 0.  1.
         11    1    4    4    0    0  0.17229937460E-01 -0.41609818680E-02 -0.96857989776E-01  0.98467841549E-01  0.51100000000E-03 0. -1.
</event>
<event>
 8    1  0.1166736E+005  0.1043930E+01  0.7957747E-01            NaN
         13   -1    0    0    0    0  0.00000000000E+00  0.00000000000E+00  0.74505805969E-08  0.10566000000E+00  0.10566000000E+00 0.  1.
     999900   -1    0    0    0    0 -0.00000000000E+00 -0.00000000000E+00 -0.74505805969E-08  0.93827000000E+00  0.93827000000E+00 0.  1.
     999902    2    1    2    0    0  0.10723308827E-01  0.77679046325E-02  0.19505428184E-01  0.10203547710E+01  0.10200823826E+01 0.  0.
     999903    2    3    3    0    0  0.65119982263E-01  0.65733565406E-01  0.94345271935E-01  0.13360789722E+00  0.19711066763E-01 0.  0.
         14    1    1    2    0    0 -0.10723308827E-01 -0.77679046325E-02 -0.19505428184E-01  0.23575229017E-01  0.00000000000E+00 0. -1.
     999901    1    3    3    0    0 -0.54396673436E-01 -0.57965660774E-01 -0.74839843751E-01  0.88674687376E+00  0.88000000000E+00 0.  1.
        -11    1    4    4    0    0  0.11268513978E-01  0.22976056184E-01  0.21426084254E-01  0.33379885747E-01  0.51100000000E-03 0. -1.
         11    1    4    4    0    0  0.53851468285E-01  0.42757509222E-01  0.72919187681E-01  0.10022801148E+00  0.51100000000E-03 0.  1.
</event>
<event>
 8    1  0.1166736E+005  0.1043930E+01  0.7957747E-01            NaN
         13   -1    0    0    0    0  0.00000000000E+00  0.00000000000E+00  0.74505805969E-08  0.10566000000E+00  0.10566000000E+00 0.  1.
     999900   -1    0    0    0    0 -0.00000000000E+00 -0.00000000000E+00 -0.74505805969E-08  0.93827000000E+00  0.93827000000E+00 0. -1.
     999902    2    1    2    0    0 -0.57989639359E-03 -0.27092909552E-02  0.22985352281E-01  0.10207782623E+01  0.10205156823E+01 0.  0.
     999903    2    3    3    0    0 -0.12207718025E+00 -0.75892481045E-02 -0.39839019476E-01  0.13019850417E+00  0.20101452448E-01 0.  0.
         14    1    1    2    0    0  0.57989639359E-03  0.27092909552E-02 -0.22985352281E-01  0.23151737662E-01  0.00000000000E+00 0. -1.
     999901    1    3    3    0    0  0.12149728386E+00  0.48799571494E-02  0.62824371757E-01  0.89057975817E+00  0.88000000000E+00 0.  1.
        -11    1    4    4    0    0 -0.11318716683E-01 -0.61673415833E-02 -0.69347853628E-02  0.14645880601E-01  0.51100000000E-03 0. -1.
         11    1    4    4    0    0 -0.11075846357E+00 -0.14219065213E-02 -0.32904234113E-01  0.11555262357E+00  0.51100000000E-03 0.  1.
</event>
<event>
 8    1  0.1166736E+005  0.1043930E+01  0.7957747E-01            NaN
         13   -1    0    0    0    0  0.00000000000E+00  0.00000000000E+00  0.74505805969E-08  0.10566000000E+00  0.10566000000E+00 0. -1.
     999900   -1    0    0    0    0 -0.00000000000E+00 -0.00000000000E+00 -0.74505805969E-08  0.93827000000E+00  0.93827000000E+00 0. -1.
     999902    2    1    2    0    0 -0.22085913375E-01  0.80041389718E-02  0.36309172032E-02  0.10201594853E+01  0.10198825119E+01 0.  0.
     999903    2    3    3    0    0  0.27966384380E-01  0.11704459146E+00 -0.46439741998E-01  0.13060784333E+00  0.20498879407E-01 0.  0.
         14    1    1    2    0    0  0.22085913375E-01 -0.80041389718E-02 -0.36309172032E-02  0.23770514720E-01  0.00000000000E+00 0.  1.
     999901    1    3    3    0    0 -0.50052297755E-01 -0.10904045249E+00  0.50070659202E-01  0.88955164195E+00  0.88000000000E+00 0. -1.
        -11    1    4    4    0    0  0.22493107225E-01  0.92993618095E-01 -0.45433668761E-01  0.10591615673E+00  0.51100000000E-03 0. -1.
         11    1    4    4    0    0  0.54732771549E-02  0.24050973362E-01 -0.10060732374E-02  0.24691686594E-01  0.51100000000E-03 0.  1.
</event>
<event>
 8    1  0.1166736E+005  0.1043930E+01  0.7957747E-01            NaN
         13   -1    0    0    0    0  0.00000000000E+00  0.00000000000E+00  0.74505805969E-08  0.10566000000E+00  0.10566000000E+00 0. -1.
     999900   -1    0    0    0    0 -0.00000000000E+00 -0.00000000000E+00 -0.74505805969E-08  0.93827000000E+00  0.93827000000E+00 0. -1.
     999902    2    1    2    0    0 -0.98582556937E-02 -0.11141793497E-01  0.19270572247E-01  0.10195849857E+01  0.10192942967E+01 0.  0.
     999903    2    3    3    0    0  0.22198843464E-01  0.11964401985E+00 -0.33631536696E-01  0.12777154122E+00  0.19672476944E-01 0.  0.
         14    1    1    2    0    0  0.98582556937E-02  0.11141793497E-01 -0.19270572247E-01  0.24345014323E-01  0.00000000000E+00 0. -1.
     999901    1    3    3    0    0 -0.32057099157E-01 -0.13078581335E+00  0.52902108943E-01  0.89181344445E+00  0.88000000000E+00 0.  1.
        -11    1    4    4    0    0  0.10499291028E-01  0.95625793650E-01 -0.22333774479E-01  0.98760245680E-01  0.51100000000E-03 0.  1.
         11    1    4    4    0    0  0.11699552436E-01  0.24018226199E-01 -0.11297762217E-01  0.29011295543E-01  0.51100000000E-03 0. -1.
</event>
<event>
 8    1  0.1166736E+005  0.1043930E+01  0.7957747E-01            NaN
         13   -1    0    0    0    0  0.00000000000E+00  0.00000000000E+00  0.74505805969E-08  0.10566000000E+00  0.10566000000E+00 0.  1.
     999900   -1    0    0    0    0 -0.00000000000E+00 -0.00000000000E+00 -0.74505805969E-08  0.93827000000E+00  0.93827000000E+00 0. -1.
     999902    2    1    2    0    0  0.17579798241E-01  0.15741706067E-01 -0.10348807373E-02  0.10203096360E+01  0.10200361914E+01 0.  0.
     999903    2    3    3    0    0 -0.20780315747E-01 -0.27986671159E-01  0.12320461355E+00  0.12968113813E+00  0.20560775827E-01 0.  0.
         14    1    1    2    0    0 -0.17579798241E-01 -0.15741706067E-01  0.10348807373E-02  0.23620363973E-01  0.00000000000E+00 0. -1.
     999901    1    3    3    0    0  0.38360113988E-01  0.43728377225E-01 -0.12423949429E+00  0.89062849789E+00  0.88000000000E+00 0. -1.
        -11    1    4    4    0    0 -0.16679660584E-01 -0.20099484288E-01  0.11367826545E+00  0.11664137132E+00  0.51100000000E-03 0. -1.
         11    1    4    4    0    0 -0.41006551629E-02 -0.78871868706E-02  0.95263480940E-02  0.13039766812E-01  0.51100000000E-03 0.  1.
</event>
<event>
 8    1  0.1166736E+005  0.1043930E+01  0.7957747E-01            NaN
         13   -1    0    0    0    0  0.00000000000E+00  0.00000000000E+00  0.74505805969E-08  0.10566000000E+00  0.10566000000E+00 0.  1.
     999900   -1    0    0    0    0 -0.00000000000E+00 -0.00000000000E+00 -0.74505805969E-08  0.93827000000E+00  0.93827000000E+00 0. -1.
     999902    2    1    2    0    0 -0.70125461982E-02  0.11589984992E-01  0.20720228952E-01  0.10191745674E+01  0.10188738722E+01 0.  0.
     999903    2    3    3    0    0 -0.12628463875E+00  0.14500884187E-01  0.25248848826E-01  0.13111217442E+00  0.19869883958E-01 0.  0.
         14    1    1    2    0    0  0.70125461982E-02 -0.11589984992E-01 -0.20720228952E-01  0.24755432618E-01  0.00000000000E+00 0. -1.
     999901    1    3    3    0    0  0.11927209255E+00 -0.29108991955E-02 -0.45286198746E-02  0.88806239296E+00  0.88000000000E+00 0.  1.
        -11    1    4    4    0    0 -0.77446139558E-01  0.16925528653E-02  0.85839788383E-02  0.77940458565E-01  0.51100000000E-03 0.  1.
         11    1    4    4    0    0 -0.48838499189E-01  0.12808331322E-01  0.16664869988E-01  0.53171715856E-01  0.51100000000E-03 0. -1.
</event>
<event>
 8    1  0.1166736E+005  0.1043930E+01  0.7957747E-01            NaN
         13   -1    0    0    0    0  0.00000000000E+00  0.00000000000E+00  0.74505805969E-08  0.10566000000E+00  0.10566000000E+00 0. -1.
     999900   -1    0    0    0    0 -0.00000000000E+00 -0.00000000000E+00 -0.74505805969E-08  0.93827000000E+00  0.93827000000E+00 0.  1.
     999902    2    1    2    0    0  0.17054469341E-02 -0.18988366994E-01 -0.12217068857E-01  0.10212866036E+01  0.10210355543E+01 0.  0.
     999903    2    3    3    0    0  0.25264606969E-01  0.88084931460E-01 -0.89642757705E-01  0.13110995674E+00  0.27508930059E-01 0.  0.
         14    1    1    2    0    0 -0.17054469341E-02  0.18988366994E-01  0.12217068857E-01  0.22643396428E-01  0.00000000000E+00 0. -1.
     999901    1    3    3    0    0 -0.23559160035E-01 -0.10707329845E+00  0.77425688849E-01  0.89017664683E+00  0.88000000000E+00 0. -1.
        -11    1    4    4    0    0  0.64365922929E-02  0.66970152867E-01 -0.60313829794E-01  0.90357347686E-01  0.51100000000E-03 0.  1.
         11    1    4    4    0    0  0.18828014677E-01  0.21114778593E-01 -0.29328927911E-01  0.40752609059E-01  0.51100000000E-03 0. -1.
</event>
<event>
 8    1  0.1166736E+005  0.1043930E+01  0.7957747E-01            NaN
         13   -1    0    0    0    0  0.00000000000E+00  0.00000000000E+00  0.74505805969E-08  0.10566000000E+00  0.10566000000E+00 0.  1.
     999900   -1    0    0    0    0 -0.00000000000E+00 -0.00000000000E+00 -0.74505805969E-08  0.93827000000E+00  0.93827000000E+00 0. -1.
     999902    2    1    2    0    0 -0.20926550705E-01 -0.48281428113E-02 -0.10472615884E-01  0.10200363362E+01  0.10197564513E+01 0.  0.
     999903    2    3    3    0    0  0.12077267165E+00 -0.13775517630E-01 -0.36376290734E-01  0.12827979681E+00  0.18885672843E-01 0.  0.
         14    1    1    2    0    0  0.20926550705E-01  0.48281428113E-02  0.10472615884E-01  0.23893663823E-01  0.00000000000E+00 0.  1.
     999901    1    3    3    0    0 -0.14169922236E+00  0.89473748187E-02  0.25903674850E-01  0.89175653937E+00  0.88000000000E+00 0. -1.
        -11    1    4    4    0    0  0.52704622905E-01 -0.13393926482E-01 -0.10094113557E-01  0.55311181434E-01  0.51100000000E-03 0.  1.
         11    1    4    4    0    0  0.68068048745E-01 -0.38159114815E-03 -0.26282177177E-01  0.72968615377E-01  0.51100000000E-03 0. -1.
</event>
<event>
 8    1  0.1166736E+005  0.1043930E+01  0.7957747E-01            NaN
         13   -1    0    0    0    0  0.00000000000E+00  0.00000000000E+00  0.74505805969E-08  0.10566000000E+00  0.10566000000E+00 0.  1.
     999900   -1    0    0    0    0 -0.00000000000E+00 -0.00000000000E+00 -0.74505805969E-08  0.93827000000E+00  0.93827000000E+00 0. -1.
     999902    2    1    2    0    0  0.17976704274E-01 -0.10421724065E-01  0.10700077348E-01  0.10205576684E+01  0.10202900022E+01 0.  0.
     999903    2    3    3    0    0  0.11095796537E+00  0.67772988514E-01  0.39702651527E-02  0.13218543878E+00  0.23502748130E-01 0.  0.
         14    1    1    2    0    0 -0.17976704274E-01  0.10421724065E-01 -0.10700077348E-01  0.23372331597E-01  0.00000000000E+00 0. -1.
     999901    1    3    3    0    0 -0.92981261095E-01 -0.78194712580E-01  0.67298121953E-02  0.88837222962E+00  0.88000000000E+00 0.  1.
        -11    1    4    4    0    0  0.74956949627E-01  0.33864001126E-01  0.75411488837E-02  0.82598092697E-01  0.51100000000E-03 0. -1.
         11    1    4    4    0    0  0.36001015741E-01  0.33908987389E-01 -0.35708837311E-02  0.49587346085E-01  0.51100000000E-03 0.  1.
</event>
<event>
 8    1  0.1166736E+005  0.1043930E+01  0.7957747E-01            NaN
         13   -1    0    0    0    0  0.00000000000E+00  0.00000000000E+00  0.74505805969E-08  0.10566000000E+00  0.10566000000E+00 0.  1.
     999900   -1    0    0    0    0 -0.00000000000E+00 -0.00000000000E+00 -0.74505805969E-08  0.93827000000E+00  0.93827000000E+00 0.  1.
     999902    2    1    2    0    0  0.21723761259E-01  0.20635638567E-02  0.82612697749E-02  0.10205970045E+01  0.10203302490E+01 0.  0.
     999903    2    3    3    0    0 -0.38441400367E-01  0.27803752121E-01 -0.11843565228E+00  0.12911816910E+00  0.19842075690E-01 0.  0.
         14    1    1    2    0    0 -0.21723761259E-01 -0.20635638567E-02 -0.82612697749E-02  0.23332995464E-01  0.00000000000E+00 0. -1.
     999901    1    3    3    0    0  0.60165161626E-01 -0.25740188265E-01  0.12669692205E+00  0.89147883543E+00  0.88000000000E+00 0. -1.
        -11    1    4    4    0    0 -0.14376407090E-02 -0.23211837628E-02 -0.14337238131E-01  0.14603842751E-01  0.51100000000E-03 0. -1.
         11    1    4    4    0    0 -0.37003759658E-01  0.30124935884E-01 -0.10409841415E+00  0.11451432635E+00  0.51100000000E-03 0.  1.
</event>
<event>
 8    1  0.1166736E+005  0.1043930E+01  0.7957747E-01            NaN
         13   -1    0    0    0    0  0.00000000000E+00  0.00000000000E+00  0.74505805969E-08  0.10566000000E+00  0.10566000000E+00 0.  1.
     999900   -1    0    0    0    0 -0.00000000000E+00 -0.00000000000E+00 -0.74505805969E-08  0.93827000000E+00  0.93827000000E+00 0. -1.
     999902    2    1    2    0    0 -0.69262204486E-03 -0.63376193659E-02 -0.23587013910E-01  0.10194965727E+01  0.10192037428E+01 0.  0.
     999903    2    3    3    0    0 -0.10457142957E+00 -0.70244601172E-01  0.23898402078E-01  0.12981698222E+00  0.20293530389E-01 0.  0.
         14    1    1    2    0    0  0.69262204486E-03  0.63376193659E-02  0.23587013910E-01  0.24433427301E-01  0.00000000000E+00 0.  1.
     999901    1    3    3    0    0  0.10387880752E+00  0.63906981806E-01 -0.47485415988E-01  0.88967959048E+00  0.88000000000E+00 0. -1.
        -11    1    4    4    0    0 -0.54382148576E-01 -0.32738052346E-01  0.21824910256E-01  0.67125151649E-01  0.51100000000E-03 0.  1.
         11    1    4    4    0    0 -0.50189280993E-01 -0.37506548826E-01  0.20734918224E-02  0.62691830575E-01  0.51100000000E-03 0. -1.
</event>
<event>
 8    1  0.1166736E+005  0.1043930E+01  0.7957747E-01            NaN
         13   -1    0    0    0    0  0.00000000000E+00  0.00000000000E+00  0.74505805969E-08  0.10566000000E+00  0.10566000000E+00 0.  1.
     999900   -1    0    0    0    0 -0.00000000000E+00 -0.00000000000E+00 -0.74505805969E-08  0.93827000000E+00  0.93827000000E+00 0. -1.
     999902    2    1    2    0    0  0.80014074943E-02 -0.17061052078E-01  0.15578260972E-01  0.10194803735E+01  0.10191871505E+01 0.  0.
     999903    2    3    3    0    0  0.30480379744E-01  0.11542267841E+00  0.43748519702E-01  0.12883408767E+00  0.20804829460E-01 0.  0.
         14    1    1    2    0    0 -0.80014074943E-02  0.17061052078E-01 -0.15578260972E-01  0.24449626476E-01  0.00000000000E+00 0. -1.
     999901    1    3    3    0    0 -0.22478972250E-01 -0.13248373048E+00 -0.28170258730E-01  0.89064628586E+00  0.88000000000E+00 0. -1.
        -11    1    4    4    0    0  0.12025494572E-01  0.29559800348E-01  0.31260709041E-02  0.32069109071E-01  0.51100000000E-03 0. -1.
         11    1    4    4    0    0  0.18454885172E-01  0.85862878057E-01  0.40622448798E-01  0.96764978594E-01  0.51100000000E-03 0.  1.
</event>
<event>
 8    1  0.1166736E+005  0.1043930E+01  0.7957747E-01            NaN
         13   -1    0    0    0    0  0.00000000000E+00  0.00000000000E+00  0.74505805969E-08  0.10566000000E+00  0.10566000000E+00 0.  1.
     999900   -1    0    0    0    0 -0.00000000000E+00 -0.00000000000E+00 -0.74505805969E-08  0.93827000000E+00  0.93827000000E+00 0. -1.
     999902    2    1    2    0    0  0.43619027221E-02  0.17845656478E-01  0.15314807517E-01  0.10200127054E+01  0.10197322601E+01 0.  0.
     999903    2    3    3    0    0  0.27074329690E-01 -0.16303490130E-01  0.12660101048E+00  0.13205626645E+00  0.20303165636E-01 0.  0.
         14    1    1    2    0    0 -0.43619027221E-02 -0.17845656478E-01 -0.15314807517E-01  0.23917294575E-01  0.00000000000E+00 0. -1.
     999901    1    3    3    0    0 -0.22712426968E-01  0.34149146609E-01 -0.11128620296E+00  0.88795643898E+00  0.88000000000E+00 0. -1.
        -11    1    4    4    0    0  0.19345338116E-01 -0.16769768654E-01  0.63330063120E-01  0.68311238192E-01  0.51100000000E-03 0.  1.
         11    1    4    4    0    0  0.77289915740E-02  0.46627852417E-03  0.63270947360E-01  0.63745028255E-01  0.51100000000E-03 0. -1.
</event>
<event>
 8    1  0.1166736E+005  0.1043930E+01  0.7957747E-01            NaN
         13   -1    0    0    0    0  0.00000000000E+00  0.00000000000E+00  0.74505805969E-08  0.10566000000E+00  0.10566000000E+00 0. -1.
     999900   -1    0    0    0    0 -0.00000000000E+00 -0.00000000000E+00 -0.74505805969E-08  0.93827000000E+00  0.93827000000E+00 0.  1.
     999902    2    1    2    0    0  0.18797783478E-01 -0.14550614758E-01  0.61858194844E-02  0.10193669909E+01  0.10190710087E+01 0.  0.
     999903    2    3    3    0    0 -0.19042990647E-01 -0.71384404626E-01  0.10644462566E+00  0.13104619745E+00  0.19603030808E-01 0.  0.
         14    1    1    2    0    0 -0.18797783478E-01  0.14550614758E-01 -0.61858194844E-02  0.24563009103E-01  0.00000000000E+00 0. -1.
     999901    1    3    3    0    0  0.37840774125E-01  0.56833789868E-01 -0.10025880618E+00  0.88832079345E+00  0.88000000000E+00 0.  1.
        -11    1    4    4    0    0 -0.17995643805E-01 -0.34236126895E-01  0.46146917970E-01  0.60214240341E-01  0.51100000000E-03 0.  1.
         11    1    4    4    0    0 -0.10473468420E-02 -0.37148277731E-01  0.60297707691E-01  0.70831957107E-01  0.51100000000E-03 0. -1.
</event>
<event>
 8    1  0.1166736E+005  0.1043930E+01  0.7957747E-01            NaN
         13   -1    0    0    0    0  0.00000000000E+00  0.00000000000E+00  0.74505805969E-08  0.10566000000E+00  0.10566000000E+00 0.  1.
     999900   -1    0    0    0    0 -0.00000000000E+00 -0.00000000000E+00 -0.74505805969E-08  0.93827000000E+00  0.93827000000E+00 0.  1.
     999902    2    1    2    0    0 -0.96030860740E-02 -0.24703180517E-01 -0.10130920951E-01  0.10155556815E+01  0.10151592192E+01 0.  0.
     999903    2    3    3    0    0 -0.56709660487E-01  0.80758877453E-01  0.72141403816E-01  0.12420277136E+00  0.21999190669E-01 0.  0.
         14    1    1    2    0    0  0.96030860740E-02  0.24703180517E-01  0.10130920951E-01  0.28374318478E-01  0.00000000000E+00 0. -1.
     999901    1    3    3    0    0  0.47106574413E-01 -0.10546205797E+00 -0.82272324766E-01  0.89135291016E+00  0.88000000000E+00 0.  1.
        -11    1    4    4    0    0 -0.32722065548E-01  0.29190419957E-01  0.26149555209E-01  0.51057561141E-01  0.51100000000E-03 0.  1.
         11    1    4    4    0    0 -0.23987594939E-01  0.51568457496E-01  0.45991848606E-01  0.73145210224E-01  0.51100000000E-03 0. -1.
</event>
<event>
 8    1  0.1166736E+005  0.1043930E+01  0.7957747E-01            NaN
         13   -1    0    0    0    0  0.00000000000E+00  0.00000000000E+00  0.74505805969E-08  0.10566000000E+00  0.10566000000E+00 0.  1.
     999900   -1    0    0    0    0 -0.00000000000E+00 -0.00000000000E+00 -0.74505805969E-08  0.93827000000E+00  0.93827000000E+00 0. -1.
     999902    2    1    2    0    0  0.10593571092E-02 -0.23735996428E-01 -0.10280533116E-02  0.10201481444E+01  0.10198709035E+01 0.  0.
     999903    2    3    3    0    0  0.33499475895E-01 -0.10946319105E+00 -0.64735674808E-01  0.13309675113E+00  0.20484933159E-01 0.  0.
         14    1    1    2    0    0 -0.10593571092E-02  0.23735996428E-01  0.10280533116E-02  0.23781855637E-01  0.00000000000E+00 0. -1.
     999901    1    3    3    0    0 -0.32440118786E-01  0.85727194626E-01  0.63707621497E-01  0.88705139324E+00  0.88000000000E+00 0. -1.
        -11    1    4    4    0    0  0.19311537546E-01 -0.75816706275E-01 -0.33768341347E-01  0.85215435404E-01  0.51100000000E-03 0.  1.
         11    1    4    4    0    0  0.14187938349E-01 -0.33646484779E-01 -0.30967333462E-01  0.47881315722E-01  0.51100000000E-03 0. -1.
</event>
<event>
 8    1  0.1166736E+005  0.1043930E+01  0.7957747E-01            NaN
         13   -1    0    0    0    0  0.00000000000E+00  0.00000000000E+00  0.74505805969E-08  0.10566000000E+00  0.10566000000E+00 0. -1.
     999900   -1    0    0    0    0 -0.00000000000E+00 -0.00000000000E+00 -0.74505805969E-08  0.93827000000E+00  0.93827000000E+00 0.  1.
     999902    2    1    2    0    0 -0.85851828925E-03 -0.21656151703E-01 -0.85395076310E-02  0.10206351690E+01  0.10203692954E+01 0.  0.
     999903    2    3    3    0    0 -0.10726345777E+00  0.60553412044E-01  0.34235332177E-01  0.12939439883E+00  0.19967157947E-01 0.  0.
         14    1    1    2    0    0  0.85851828925E-03  0.21656151703E-01  0.85395076310E-02  0.23294830989E-01  0.00000000000E+00 0. -1.
     999901    1    3    3    0    0  0.10640493948E+00 -0.82209563747E-01 -0.42774839808E-01  0.89124077018E+00  0.88000000000E+00 0.  1.
        -11    1    4    4    0    0 -0.35259795738E-01  0.21022257789E-01  0.18444337798E-02  0.41095639367E-01  0.51100000000E-03 0. -1.
         11    1    4    4    0    0 -0.72003662028E-01  0.39531154256E-01  0.32390898398E-01  0.88298759460E-01  0.51100000000E-03 0.  1.
</event>
<event>
 8    1  0.1166736E+005  0.1043930E+01  0.7957747E-01            NaN
         13   -1    0    0    0    0  0.00000000000E+00  0.00000000000E+00  0.74505805969E-08  0.10566000000E+00  0.10566000000E+00 0. -1.
     999900   -1    0    0    0    0 -0.00000000000E+00 -0.00000000000E+00 -0.74505805969E-08  0.93827000000E+00  0.93827000000E+00 0. -1.
     999902    2    1    2    0    0 -0.39775799742E-02  0.51419785924E-02  0.22209689088E-01  0.10207884492E+01  0.10205261028E+01 0.  0.
     999903    2    3    3    0    0  0.40009055438E-01 -0.12194197083E+00 -0.80276866977E-02  0.13005871843E+00  0.19500197926E-01 0.  0.
         14    1    1    2    0    0  0.39775799742E-02 -0.51419785924E-02 -0.22209689088E-01  0.23141550848E-01  0.00000000000E+00 0.  1.
     999901    1    3    3    0    0 -0.43986635413E-01  0.12708394942E+00  0.30237375785E-01  0.89072973072E+00  0.88000000000E+00 0.  1.
        -11    1    4    4    0    0  0.80421899037E-02 -0.55425110432E-01 -0.31485783005E-02  0.56096295342E-01  0.51100000000E-03 0. -1.
         11    1    4    4    0    0  0.31966865535E-01 -0.66516860398E-01 -0.48791083971E-02  0.73962423088E-01  0.51100000000E-03 0.  1.
</event>
<event>
 7    1  0.1166736E+005  0.1043930E+01  0.7957747E-01            NaN
         13   -1    0    0    0    0  0.00000000000E+00  0.00000000000E+00  0.74505805969E-08  0.10566000000E+00  0.10566000000E+00 0.  1.
     999900   -1    0    0    0    0 -0.00000000000E+00 -0.00000000000E+00 -0.74505805969E-08  0.93827000000E+00  0.93827000000E+00 0. -1.
     999903    2    1    2    0    0 -0.81210997399E-01  0.46472799795E-01 -0.61237141437E-01  0.11352164918E+00  0.19550706430E-01 0.  0.
         14    1    1    2    0    0 -0.23815737744E-01  0.63704672309E-02  0.34223229698E-01  0.42178213191E-01  0.00000000000E+00 0.  1.
     999901    1    1    2    0    0  0.10502673514E+00 -0.52843267026E-01  0.27013911738E-01  0.88823013763E+00  0.88000000000E+00 0.  1.
        -11    1    3    3    0    0 -0.45055621874E-01  0.36733221056E-01 -0.37892573908E-01  0.69393420942E-01  0.51100000000E-03 0.  1.
         11    1    3    3    0    0 -0.36155375525E-01  0.97395787387E-02 -0.23344567529E-01  0.44128228238E-01  0.51100000000E-03 0. -1.
</event>
<event>
 8    1  0.1166736E+005  0.1043930E+01  0.7957747E-01            NaN
         13   -1    0    0    0    0  0.00000000000E+00  0.00000000000E+00  0.74505805969E-08  0.10566000000E+00  0.10566000000E+00 0.  1.
     999900   -1    0    0    0    0 -0.00000000000E+00 -0.00000000000E+00 -0.74505805969E-08  0.93827000000E+00  0.93827000000E+00 0.  1.
     999902    2    1    2    0    0 -0.16227600166E-01  0.15588036768E-01 -0.57991839388E-02  0.10206931235E+01  0.10204285863E+01 0.  0.
     999903    2    3    3    0    0  0.14643321396E-01 -0.87739929828E-01 -0.92596060661E-01  0.12987137905E+00  0.19489035377E-01 0.  0.
         14    1    1    2    0    0  0.16227600166E-01 -0.15588036768E-01  0.57991839388E-02  0.23236876550E-01  0.00000000000E+00 0. -1.
     999901    1    3    3    0    0 -0.30870921562E-01  0.10332796660E+00  0.86796876722E-01  0.89082174440E+00  0.88000000000E+00 0. -1.
        -11    1    4    4    0    0 -0.37438528094E-02 -0.59403822190E-02 -0.95265338225E-02  0.11845697212E-01  0.51100000000E-03 0. -1.
         11    1    4    4    0    0  0.18387174205E-01 -0.81799547609E-01 -0.83069526838E-01  0.11802568184E+00  0.51100000000E-03 0.  1.
</event>
<event>
 8    1  0.1166736E+005  0.1043930E+01  0.7957747E-01            NaN
         13   -1    0    0    0    0  0.00000000000E+00  0.00000000000E+00  0.74505805969E-08  0.10566000000E+00  0.10566000000E+00 0.  1.
     999900   -1    0    0    0    0 -0.00000000000E+00 -0.00000000000E+00 -0.74505805969E-08  0.93827000000E+00  0.93827000000E+00 0. -1.
     999902    2    1    2    0    0  0.84301045736E-02 -0.38860791713E-02  0.20420840613E-01  0.10214983481E+01  0.10212520239E+01 0.  0.
     999903    2    3    3    0    0  0.12283300302E+00 -0.42658274132E-01  0.20858018009E-01  0.13324641461E+00  0.20294706425E-01 0.  0.
         14    1    1    2    0    0 -0.84301045736E-02  0.38860791713E-02 -0.20420840613E-01  0.22431651874E-01  0.00000000000E+00 0. -1.
     999901    1    3    3    0    0 -0.11440289844E+00  0.38772194961E-01 -0.43717739524E-03  0.88825193352E+00  0.88000000000E+00 0. -1.
        -11    1    4    4    0    0  0.39205573732E-01 -0.38148890559E-02  0.61791786102E-02  0.39875728952E-01  0.51100000000E-03 0.  1.
         11    1    4    4    0    0  0.83627429284E-01 -0.38843385076E-01  0.14678839399E-01  0.93370685656E-01  0.51100000000E-03 0. -1.
</event>
<event>
 8    1  0.1166736E+005  0.1043930E+01  0.7957747E-01            NaN
         13   -1    0    0    0    0  0.00000000000E+00  0.00000000000E+00  0.74505805969E-08  0.10566000000E+00  0.10566000000E+00 0. -1.
     999900   -1    0    0    0    0 -0.00000000000E+00 -0.00000000000E+00 -0.74505805969E-08  0.93827000000E+00  0.93827000000E+00 0.  1.
     999902    2    1    2    0    0 -0.10447569898E-01  0.18510522322E-01 -0.91088417104E-02  0.10208050751E+01  0.10205431099E+01 0.  0.
     999903    2    3    3    0    0 -0.64454950323E-01 -0.10202508830E+00 -0.44679197197E-01  0.13023734566E+00  0.20049346084E-01 0.  0.
         14    1    1    2    0    0  0.10447569898E-01 -0.18510522322E-01  0.91088417104E-02  0.23124924880E-01  0.00000000000E+00 0. -1.
     999901    1    3    3    0    0  0.54007380425E-01  0.12053561062E+00  0.35570355486E-01  0.89056772946E+00  0.88000000000E+00 0. -1.
        -11    1    4    4    0    0 -0.20924017582E-01 -0.18032830938E-01 -0.12350889161E-01  0.30262238640E-01  0.51100000000E-03 0.  1.
         11    1    4    4    0    0 -0.43530932740E-01 -0.83992257362E-01 -0.32328308036E-01  0.99975107019E-01  0.51100000000E-03 0. -1.
</event>
<event>
 8    1  0.1166736E+005  0.1043930E+01  0.7957747E-01            NaN
         13   -1    0    0    0    0  0.00000000000E+00  0.00000000000E+00  0.74505805969E-08  0.10566000000E+00  0.10566000000E+00 0. -1.
     999900   -1    0    0    0    0 -0.00000000000E+00 -0.00000000000E+00 -0.74505805969E-08  0.93827000000E+00  0.93827000000E+00 0. -1.
     999902    2    1    2    0    0 -0.99866120963E-02 -0.14951390504E-01 -0.15683587533E-01  0.10200710097E+01  0.10197919462E+01 0.  0.
     999903    2    3    3    0    0  0.10204757498E+00 -0.78185926271E-01 -0.12261229668E-01  0.13071057766E+00  0.20203235691E-01 0.  0.
         14    1    1    2    0    0  0.99866120963E-02  0.14951390504E-01  0.15683587533E-01  0.23858990278E-01  0.00000000000E+00 0. -1.
     999901    1    3    3    0    0 -0.11203418708E+00  0.63234535768E-01 -0.34223578654E-02  0.88936043206E+00  0.88000000000E+00 0.  1.
        -11    1    4    4    0    0  0.47526191891E-01 -0.43250517554E-01  0.24344129608E-02  0.64308115132E-01  0.51100000000E-03 0. -1.
         11    1    4    4    0    0  0.54521383090E-01 -0.34935408717E-01 -0.14695642629E-01  0.66402462526E-01  0.51100000000E-03 0.  1.
</event>
<event>
 8    1  0.1166736E+005  0.1043930E+01  0.7957747E-01            NaN
         13   -1    0    0    0    0  0.00000000000E+00  0.00000000000E+00  0.74505805969E-08  0.10566000000E+00  0.10566000000E+00 0. -1.
     999900   -1    0    0    0    0 -0.00000000000E+00 -0.00000000000E+00 -0.74505805969E-08  0.93827000000E+00  0.93827000000E+00 0.  1.
     999902    2    1    2    0    0 -0.22726976158E-01 -0.55415704998E-02 -0.26185037018E-02  0.10203910746E+01  0.10201195342E+01 0.  0.
     999903    2    3    3    0    0 -0.10739368671E+00  0.39062579546E-01  0.64395934545E-01  0.13266988128E+00  0.19878932261E-01 0.  0.
         14    1    1    2    0    0  0.22726976158E-01  0.55415704998E-02  0.26185037018E-02  0.23538925433E-01  0.00000000000E+00 0. -1.
     999901    1    3    3    0    0  0.84666710548E-01 -0.44604150046E-01 -0.67014438247E-01  0.88772119329E+00  0.88000000000E+00 0.  1.
        -11    1    4    4    0    0 -0.53783025616E-01  0.17360836619E-01  0.20733196177E-01  0.60200822563E-01  0.51100000000E-03 0.  1.
         11    1    4    4    0    0 -0.53610661090E-01  0.21701742927E-01  0.43662738368E-01  0.72469058718E-01  0.51100000000E-03 0. -1.
</event>
<event>
 8    1  0.1166736E+005  0.1043930E+01  0.7957747E-01            NaN
         13   -1    0    0    0    0  0.00000000000E+00  0.00000000000E+00  0.74505805969E-08  0.10566000000E+00  0.10566000000E+00 0. -1.
     999900   -1    0    0    0    0 -0.00000000000E+00 -0.00000000000E+00 -0.74505805969E-08  0.93827000000E+00  0.93827000000E+00 0.  1.
     999902    2    1    2    0    0 -0.47994033835E-02 -0.23304489374E-01 -0.53017026926E-02  0.10195529298E+01  0.10192614656E+01 0.  0.
     999903    2    3    3    0    0  0.10178216942E+00 -0.23143345683E-01 -0.75544252993E-01  0.13034335191E+00  0.19678179907E-01 0.  0.
         14    1    1    2    0    0  0.47994033835E-02  0.23304489374E-01  0.53017026926E-02  0.24377070153E-01  0.00000000000E+00 0.  1.
     999901    1    3    3    0    0 -0.10658157280E+00 -0.16114369044E-03  0.70242550300E-01  0.88920957794E+00  0.88000000000E+00 0. -1.
        -11    1    4    4    0    0  0.88522141019E-01 -0.26732795330E-01 -0.65700680989E-01  0.11343567517E+00  0.51100000000E-03 0.  1.
         11    1    4    4    0    0  0.13260028401E-01  0.35894496467E-02 -0.98435720038E-02  0.16907676741E-01  0.51100000000E-03 0. -1.
</event>
<event>
 8    1  0.1166736E+005  0.1043930E+01  0.7957747E-01            NaN
         13   -1    0    0    0    0  0.00000000000E+00  0.00000000000E+00  0.74505805969E-08  0.10566000000E+00  0.10566000000E+00 0.  1.
     999900   -1    0    0    0    0 -0.00000000000E+00 -0.00000000000E+00 -0.74505805969E-08  0.93827000000E+00  0.93827000000E+00 0. -1.
     999902    2    1    2    0    0  0.14617100825E-01  0.15407062570E-01  0.12085242326E-01  0.10194945688E+01  0.10192016904E+01 0.  0.
     999903    2    3    3    0    0  0.32580150116E-01  0.71665312447E-01 -0.10185848750E+00  0.13018537887E+00  0.19382935914E-01 0.  0.
         14    1    1    2    0    0 -0.14617100825E-01 -0.15407062570E-01 -0.12085242326E-01  0.24435431153E-01  0.00000000000E+00 0.  1.
     999901    1    3    3    0    0 -0.17963049291E-01 -0.56258249878E-01  0.11394372983E+00  0.88930918998E+00  0.88000000000E+00 0.  1.
        -11    1    4    4    0    0  0.17226886958E-01  0.18216072314E-01 -0.25971539884E-01  0.36102256574E-01  0.51100000000E-03 0.  1.
         11    1    4    4    0    0  0.15353263157E-01  0.53449240134E-01 -0.75886947617E-01  0.94083122291E-01  0.51100000000E-03 0. -1.
</event>
<event>
 8    1  0.1166736E+005  0.1043930E+01  0.7957747E-01            NaN
         13   -1    0    0    0    0  0.00000000000E+00  0.00000000000E+00  0.74505805969E-08  0.10566000000E+00  0.10566000000E+00 0. -1.
     999900   -1    0    0    0    0 -0.00000000000E+00 -0.00000000000E+00 -0.74505805969E-08  0.93827000000E+00  0.93827000000E+00 0.  1.
     999902    2    1    2    0    0 -0.57718219737E-02  0.20870552029E-01 -0.11689557948E-01  0.10193222850E+01  0.10190252112E+01 0.  0.
     999903    2    3    3    0    0 -0.88155052062E-01  0.42351363408E-01 -0.86537337610E-01  0.13205084293E+00  0.19589873161E-01 0.  0.
         14    1    1    2    0    0  0.57718219737E-02 -0.20870552029E-01  0.11689557948E-01  0.24607714967E-01  0.00000000000E+00 0.  1.
     999901    1    3    3    0    0  0.82383230088E-01 -0.21480811379E-01  0.74847779662E-01  0.88727144211E+00  0.88000000000E+00 0. -1.
        -11    1    4    4    0    0 -0.34028201417E-01  0.85938224565E-02 -0.22690555757E-01  0.41795869624E-01  0.51100000000E-03 0. -1.
         11    1    4    4    0    0 -0.54126850645E-01  0.33757540951E-01 -0.63846781853E-01  0.90254973302E-01  0.51100000000E-03 0.  1.
</event>
<event>
 8    1  0.1166736E+005  0.1043930E+01  0.7957747E-01            NaN
         13   -1    0    0    0    0  0.00000000000E+00  0.00000000000E+00  0.74505805969E-08  0.10566000000E+00  0.10566000000E+00 0. -1.
     999900   -1    0    0    0    0 -0.00000000000E+00 -0.00000000000E+00 -0.74505805969E-08  0.93827000000E+00  0.93827000000E+00 0. -1.
     999902    2    1    2    0    0  0.14894098648E-01 -0.10356423717E-01 -0.15032222017E-01  0.10203703441E+01  0.10200983197E+01 0.  0.
     999903    2    3    3    0    0  0.12212237544E+00  0.21067459067E-01 -0.44470664143E-01  0.13281641019E+00  0.17459852006E-01 0.  0.
         14    1    1    2    0    0 -0.14894098648E-01  0.10356423717E-01  0.15032222017E-01  0.23559655887E-01  0.00000000000E+00 0. -1.
     999901    1    3    3    0    0 -0.10722827679E+00 -0.31423882784E-01  0.29438442127E-01  0.88755393393E+00  0.88000000000E+00 0. -1.
        -11    1    4    4    0    0  0.10503863402E+00  0.23963753662E-01 -0.36683622551E-01  0.11381267684E+00  0.51100000000E-03 0. -1.
         11    1    4    4    0    0  0.17083741417E-01 -0.28962945956E-02 -0.77870415924E-02  0.19003733343E-01  0.51100000000E-03 0.  1.
</event>
<event>
 8    1  0.1166736E+005  0.1043930E+01  0.7957747E-01            NaN
         13   -1    0    0    0    0  0.00000000000E+00  0.00000000000E+00  0.74505805969E-08  0.10566000000E+00  0.10566000000E+00 0.  1.
     999900   -1    0    0    0    0 -0.00000000000E+00 -0.00000000000E+00 -0.74505805969E-08  0.93827000000E+00  0.93827000000E+00 0.  1.
     999902    2    1    2    0    0 -0.48407224019E-02  0.39603599916E-02  0.23452147840E-01  0.10196581998E+01  0.10193692777E+01 0.  0.
     999903    2    3    3    0    0  0.91201330574E-01 -0.70375186882E-01 -0.52387328486E-01  0.12808572626E+00  0.19778055007E-01 0.  0.
         14    1    1    2    0    0  0.48407224019E-02 -0.39603599916E-02 -0.23452147840E-01  0.24271800159E-01  0.00000000000E+00 0. -1.
     999901    1    3    3    0    0 -0.96042052975E-01  0.74335546874E-01  0.75839476327E-01  0.89157247358E+00  0.88000000000E+00 0. -1.
        -11    1    4    4    0    0  0.17132306859E-01 -0.17320494383E-01 -0.19539085288E-01  0.31233834841E-01  0.51100000000E-03 0.  1.
         11    1    4    4    0    0  0.74069023715E-01 -0.53054692499E-01 -0.32848243198E-01  0.96851891424E-01  0.51100000000E-03 0. -1.
</event>
<event>
 8    1  0.1166736E+005  0.1043930E+01  0.7957747E-01            NaN
         13   -1    0    0    0    0  0.00000000000E+00  0.00000000000E+00  0.74505805969E-08  0.10566000000E+00  0.10566000000E+00 0. -1.
     999900   -1    0    0    0    0 -0.00000000000E+00 -0.00000000000E+00 -0.74505805969E-08  0.93827000000E+00  0.93827000000E+00 0. -1.
     999902    2    1    2    0    0 -0.74468622865E-02  0.14869736054E-01 -0.16925822209E-01  0.10202013619E+01  0.10199253750E+01 0.  0.
     999903    2    3    3    0    0  0.47483742082E-01  0.38471564076E-01  0.11162601997E+00  0.12885407061E+00  0.20204855163E-01 0.  0.
         14    1    1    2    0    0  0.74468622865E-02 -0.14869736054E-01  0.16925822209E-01  0.23728638092E-01  0.00000000000E+00 0.  1.
     999901    1    3    3    0    0 -0.54930604368E-01 -0.23601828022E-01 -0.12855184218E+00  0.89134729130E+00  0.88000000000E+00 0. -1.
        -11    1    4    4    0    0  0.17416315601E-01  0.24021073107E-01  0.65677212474E-01  0.72070086455E-01  0.51100000000E-03 0.  1.
         11    1    4    4    0    0  0.30067426481E-01  0.14450490968E-01  0.45948807500E-01  0.56783984152E-01  0.51100000000E-03 0. -1.
</event>
<event>
 8    1  0.1166736E+005  0.1043930E+01  0.7957747E-01            NaN
         13   -1    0    0    0    0  0.00000000000E+00  0.00000000000E+00  0.74505805969E-08  0.10566000000E+00  0.10566000000E+00 0.  1.
     999900   -1    0    0    0    0 -0.00000000000E+00 -0.00000000000E+00 -0.74505805969E-08  0.93827000000E+00  0.93827000000E+00 0. -1.
     999902    2    1    2    0    0 -0.16898917954E-01 -0.17075329685E-01 -0.81983473220E-02  0.10185458866E+01  0.10182295272E+01 0.  0.
     999903    2    3    3    0    0  0.14782988458E-01 -0.73376838082E-01  0.10338019957E+00  0.12915093773E+00  0.19743402404E-01 0.  0.
         14    1    1    2    0    0  0.16898917954E-01  0.17075329685E-01  0.81983473220E-02  0.25384113352E-01  0.00000000000E+00 0.  1.
     999901    1    3    3    0    0 -0.31681906412E-01  0.56301508397E-01 -0.11157854689E+00  0.88939494892E+00  0.88000000000E+00 0. -1.
        -11    1    4    4    0    0  0.16696819101E-01 -0.69588518539E-01  0.89311934902E-01  0.11444749240E+00  0.51100000000E-03 0.  1.
         11    1    4    4    0    0 -0.19138306436E-02 -0.37883195438E-02  0.14068264664E-01  0.14703445322E-01  0.51100000000E-03 0. -1.
</event>
<event>
 8    1  0.1166736E+005  0.1043930E+01  0.7957747E-01            NaN
         13   -1    0    0    0    0  0.00000000000E+00  0.00000000000E+00  0.74505805969E-08  0.10566000000E+00  0.10566000000E+00 0. -1.
     999900   -1    0    0    0    0 -0.00000000000E+00 -0.00000000000E+00 -0.74505805969E-08  0.93827000000E+00  0.93827000000E+00 0.  1.
     999902    2    1    2    0    0  0.20076143163E-01 -0.54359210360E-02 -0.11271998899E-01  0.10202728928E+01  0.10199985868E+01 0.  0.
     999903    2    3    3    0    0 -0.16995179369E-01 -0.35612445111E-01  0.12155966241E+00  0.12902143793E+00  0.17683256241E-01 0.  0.
         14    1    1    2    0    0 -0.20076143163E-01  0.54359210360E-02  0.11271998899E-01  0.23657107199E-01  0.00000000000E+00 0. -1.
     999901    1    3    3    0    0  0.37071322533E-01  0.30176524075E-01 -0.13283166131E+00  0.89125145487E+00  0.88000000000E+00 0.  1.
        -11    1    4    4    0    0 -0.71339218036E-02 -0.82663601113E-02  0.59411274377E-01  0.60408494385E-01  0.51100000000E-03 0. -1.
         11    1    4    4    0    0 -0.98612575659E-02 -0.27346084999E-01  0.62148388037E-01  0.68612943547E-01  0.51100000000E-03 0.  1.
</event>
<event>
 8    1  0.1166736E+005  0.1043930E+01  0.7957747E-01            NaN
         13   -1    0    0    0    0  0.00000000000E+00  0.00000000000E+00  0.74505805969E-08  0.10566000000E+00  0.10566000000E+00 0. -1.
     999900   -1    0    0    0    0 -0.00000000000E+00 -0.00000000000E+00 -0.74505805969E-08  0.93827000000E+00  0.93827000000E+00 0.  1.
     999902    2    1    2    0    0 -0.22583864691E-01 -0.81084441224E-02  0.10180612827E-02  0.10199130423E+01  0.10196302269E+01 0.  0.
     999903    2    3    3    0    0 -0.42325951881E-01 -0.11768997923E+00 -0.38642464628E-01  0.13201055878E+00  0.17062536253E-01 0.  0.
         14    1    1    2    0    0  0.22583864691E-01  0.81084441224E-02 -0.10180612827E-02  0.24016957743E-01  0.00000000000E+00 0.  1.
     999901    1    3    3    0    0  0.19742087190E-01  0.10958153511E+00  0.39660525910E-01  0.88790248347E+00  0.88000000000E+00 0. -1.
        -11    1    4    4    0    0 -0.20285257625E-01 -0.43389863393E-01 -0.22147902353E-01  0.52772745066E-01  0.51100000000E-03 0. -1.
         11    1    4    4    0    0 -0.22040694256E-01 -0.74300115839E-01 -0.16494562275E-01  0.79237813717E-01  0.51100000000E-03 0.  1.
</event>
<event>
 8    1  0.1166736E+005  0.1043930E+01  0.7957747E-01            NaN
         13   -1    0    0    0    0  0.00000000000E+00  0.00000000000E+00  0.74505805969E-08  0.10566000000E+00  0.10566000000E+00 0. -1.
     999900   -1    0    0    0    0 -0.00000000000E+00 -0.00000000000E+00 -0.74505805969E-08  0.93827000000E+00  0.93827000000E+00 0. -1.
     999902    2    1    2    0    0  0.19152477942E-02  0.25958058148E-01  0.18742549096E-01  0.10118555226E+01  0.10113470356E+01 0.  0.
     999903    2    3    3    0    0  0.28167808766E-01 -0.90445453634E-01 -0.70907191957E-01  0.11928840990E+00  0.15102626661E-01 0.  0.
         14    1    1    2    0    0 -0.19152477942E-02 -0.25958058148E-01 -0.18742549096E-01  0.32074477447E-01  0.00000000000E+00 0.  1.
     999901    1    3    3    0    0 -0.26252560972E-01  0.11640351178E+00  0.89649741053E-01  0.89256711265E+00  0.88000000000E+00 0. -1.
        -11    1    4    4    0    0  0.21844158765E-01 -0.56917249214E-01 -0.37744574600E-01  0.71705331482E-01  0.51100000000E-03 0. -1.
         11    1    4    4    0    0  0.63236500014E-02 -0.33528204420E-01 -0.33162617357E-01  0.47583078421E-01  0.51100000000E-03 0.  1.
</event>
<event>
 8    1  0.1166736E+005  0.1043930E+01  0.7957747E-01            NaN
         13   -1    0    0    0    0  0.00000000000E+00  0.00000000000E+00  0.74505805969E-08  0.10566000000E+00  0.10566000000E+00 0.  1.
     999900   -1    0    0    0    0 -0.00000000000E+00 -0.00000000000E+00 -0.74505805969E-08  0.93827000000E+00  0.93827000000E+00 0.  1.
     999902    2    1    2    0    0 -0.12074889066E-01  0.15241641046E-01  0.88457931546E-02  0.10225674481E+01  0.10223442802E+01 0.  0.
     999903    2    3    3    0    0  0.32787746748E-01 -0.11438545471E+00 -0.48426351877E-01  0.13010123660E+00  0.20546328705E-01 0.  0.
         14    1    1    2    0    0  0.12074889066E-01 -0.15241641046E-01 -0.88457931546E-02  0.21362551914E-01  0.00000000000E+00 0.  1.
     999901    1    3    3    0    0 -0.44862635813E-01  0.12962709576E+00  0.57272145031E-01  0.89246621149E+00  0.88000000000E+00 0. -1.
        -11    1    4    4    0    0  0.55745250895E-02 -0.52910007370E-01 -0.16736246842E-01  0.55775507969E-01  0.51100000000E-03 0.  1.
         11    1    4    4    0    0  0.27213221658E-01 -0.61475447340E-01 -0.31690105034E-01  0.74325728632E-01  0.51100000000E-03 0. -1.
</event>
<event>
 8    1  0.1166736E+005  0.1043930E+01  0.7957747E-01            NaN
         13   -1    0    0    0    0  0.00000000000E+00  0.00000000000E+00  0.74505805969E-08  0.10566000000E+00  0.10566000000E+00 0.  1.
     999900   -1    0    0    0    0 -0.00000000000E+00 -0.00000000000E+00 -0.74505805969E-08  0.93827000000E+00  0.93827000000E+00 0. -1.
     999902    2    1    2    0    0  0.38011308440E-02  0.65676880614E-02  0.22652084303E-01  0.10200406709E+01  0.10197608887E+01 0.  0.
     999903    2    3    3    0    0 -0.63253754678E-01  0.11163138189E+00  0.18762825285E-01  0.13124943344E+00  0.20292049239E-01 0.  0.
         14    1    1    2    0    0 -0.38011308440E-02 -0.65676880614E-02 -0.22652084303E-01  0.23889329112E-01  0.00000000000E+00 0. -1.
     999901    1    3    3    0    0  0.67054885522E-01 -0.10506369383E+00  0.38892590175E-02  0.88879123745E+00  0.88000000000E+00 0.  1.
        -11    1    4    4    0    0 -0.35833484389E-01  0.65748385511E-01  0.20930187748E-01  0.77751030096E-01  0.51100000000E-03 0.  1.
         11    1    4    4    0    0 -0.27420270289E-01  0.45882996375E-01 -0.21673624629E-02  0.53498403342E-01  0.51100000000E-03 0. -1.
</event>
<event>
 8    1  0.1166736E+005  0.1043930E+01  0.7957747E-01            NaN
         13   -1    0    0    0    0  0.00000000000E+00  0.00000000000E+00  0.74505805969E-08  0.10566000000E+00  0.10566000000E+00 0.  1.
     999900   -1    0    0    0    0 -0.00000000000E+00 -0.00000000000E+00 -0.74505805969E-08  0.93827000000E+00  0.93827000000E+00 0.  1.
     999902    2    1    2    0    0  0.11844858155E-01 -0.15896612153E-01  0.12983608222E-01  0.10202323836E+01  0.10199571263E+01 0.  0.
     999903    2    3    3    0    0 -0.12676850944E+00  0.21422275047E-02 -0.11227709627E-01  0.12887092302E+00  0.20169511991E-01 0.  0.
         14    1    1    2    0    0 -0.11844858155E-01  0.15896612153E-01 -0.12983608222E-01  0.23697616444E-01  0.00000000000E+00 0. -1.
     999901    1    3    3    0    0  0.13861336759E+00 -0.18038839657E-01  0.24211317849E-01  0.89136146053E+00  0.88000000000E+00 0. -1.
        -11    1    4    4    0    0 -0.32602535019E-01 -0.73552278774E-02 -0.68767291715E-02  0.34125872763E-01  0.51100000000E-03 0.  1.
         11    1    4    4    0    0 -0.94165974418E-01  0.94974553821E-02 -0.43509804552E-02  0.94745050260E-01  0.51100000000E-03 0. -1.
</event>
<event>
 8    1  0.1166736E+005  0.1043930E+01  0.7957747E-01            NaN
         13   -1    0    0    0    0  0.00000000000E+00  0.00000000000E+00  0.74505805969E-08  0.10566000000E+00  0.10566000000E+00 0.  1.
     999900   -1    0    0    0    0 -0.00000000000E+00 -0.00000000000E+00 -0.74505805969E-08  0.93827000000E+00  0.93827000000E+00 0. -1.
     999902    2    1    2    0    0  0.19492463791E-01  0.11840952050E-01 -0.39775151563E-02  0.10207786519E+01  0.10205160809E+01 0.  0.
     999903    2    3    3    0    0  0.11182798831E+00 -0.45885038230E-01 -0.52071616177E-01  0.13276334712E+00  0.17427490490E-01 0.  0.
         14    1    1    2    0    0 -0.19492463791E-01 -0.11840952050E-01  0.39775151563E-02  0.23151348058E-01  0.00000000000E+00 0. -1.
     999901    1    3    3    0    0 -0.92335524519E-01  0.57725990280E-01  0.48094101021E-01  0.88801530482E+00  0.88000000000E+00 0. -1.
        -11    1    4    4    0    0  0.66314167194E-02 -0.67962081130E-02 -0.13367800015E-02  0.96027201455E-02  0.51100000000E-03 0.  1.
         11    1    4    4    0    0  0.10519657159E+00 -0.39088830117E-01 -0.50734836175E-01  0.12316062698E+00  0.51100000000E-03 0. -1.
</event>
<event>
 8    1  0.1166736E+005  0.1043930E+01  0.7957747E-01            NaN
         13   -1    0    0    0    0  0.00000000000E+00  0.00000000000E+00  0.74505805969E-08  0.10566000000E+00  0.10566000000E+00 0.  1.
     999900   -1    0    0    0    0 -0.00000000000E+00 -0.00000000000E+00 -0.74505805969E-08  0.93827000000E+00  0.93827000000E+00 0. -1.
     999902    2    1    2    0    0 -0.91220846688E-02 -0.88130647353E-02 -0.20892304071E-01  0.10194888276E+01  0.10191958098E+01 0.  0.
     999903    2    3    3    0    0 -0.12924324387E+00 -0.54220774297E-02 -0.70171000650E-02  0.13121346885E+00  0.20845136239E-01 0.  0.
         14    1    1    2    0    0  0.91220846688E-02  0.88130647353E-02  0.20892304071E-01  0.24441172397E-01  0.00000000000E+00 0.  1.
     999901    1    3    3    0    0  0.12012115920E+00 -0.33909873055E-02 -0.13875204006E-01  0.88827535875E+00  0.88000000000E+00 0. -1.
        -11    1    4    4    0    0 -0.96926021251E-01  0.50219269190E-02 -0.54784242680E-02  0.97211869640E-01  0.51100000000E-03 0. -1.
         11    1    4    4    0    0 -0.32317222618E-01 -0.10444004349E-01 -0.15386757970E-02  0.34001599210E-01  0.51100000000E-03 0.  1.
</event>
<event>
 8    1  0.1166736E+005  0.1043930E+01  0.7957747E-01            NaN
         13   -1    0    0    0    0  0.00000000000E+00  0.00000000000E+00  0.74505805969E-08  0.10566000000E+00  0.10566000000E+00 0.  1.
     999900   -1    0    0    0    0 -0.00000000000E+00 -0.00000000000E+00 -0.74505805969E-08  0.93827000000E+00  0.93827000000E+00 0.  1.
     999902    2    1    2    0    0 -0.73128907172E-02 -0.17472936921E-01  0.17279847768E-01  0.10182906741E+01  0.10179678393E+01 0.  0.
     999903    2    3    3    0    0 -0.89657900992E-01 -0.92330671744E-01  0.13903289736E-01  0.13127557706E+00  0.21828502282E-01 0.  0.
         14    1    1    2    0    0  0.73128907172E-02  0.17472936921E-01 -0.17279847768E-01  0.25639325930E-01  0.00000000000E+00 0. -1.
     999901    1    3    3    0    0  0.82345010275E-01  0.74857734824E-01  0.33765580318E-02  0.88701509701E+00  0.88000000000E+00 0. -1.
        -11    1    4    4    0    0 -0.47103136138E-01 -0.36495211891E-01  0.13359210173E-01  0.61068285898E-01  0.51100000000E-03 0.  1.
         11    1    4    4    0    0 -0.42554764854E-01 -0.55835459853E-01  0.54407956293E-03  0.70207291162E-01  0.51100000000E-03 0. -1.
</event>
<event>
 8    1  0.1166736E+005  0.1043930E+01  0.7957747E-01            NaN
         13   -1    0    0    0    0  0.00000000000E+00  0.00000000000E+00  0.74505805969E-08  0.10566000000E+00  0.10566000000E+00 0. -1.
     999900   -1    0    0    0    0 -0.00000000000E+00 -0.00000000000E+00 -0.74505805969E-08  0.93827000000E+00  0.93827000000E+00 0.  1.
     999902    2    1    2    0    0  0.11071228750E-01  0.13108015367E-01 -0.16181851942E-01  0.10203451637E+01  0.10200725506E+01 0.  0.
     999903    2    3    3    0    0  0.10350863167E+00 -0.36544948952E-01 -0.72283872795E-01  0.13233754710E+00  0.15449853770E-01 0.  0.
         14    1    1    2    0    0 -0.11071228750E-01 -0.13108015367E-01  0.16181851942E-01  0.23584836340E-01  0.00000000000E+00 0. -1.
     999901    1    3    3    0    0 -0.92437402923E-01  0.49652964319E-01  0.56102020853E-01  0.88800761656E+00  0.88000000000E+00 0. -1.
        -11    1    4    4    0    0  0.71098301571E-01 -0.25884311103E-01 -0.58038773954E-01  0.95361032139E-01  0.51100000000E-03 0. -1.
         11    1    4    4    0    0  0.32410330102E-01 -0.10660637849E-01 -0.14245098841E-01  0.36976514961E-01  0.51100000000E-03 0.  1.
</event>
<event>
 8    1  0.1166736E+005  0.1043930E+01  0.7957747E-01            NaN
         13   -1    0    0    0    0  0.00000000000E+00  0.00000000000E+00  0.74505805969E-08  0.10566000000E+00  0.10566000000E+00 0.  1.
     999900   -1    0    0    0    0 -0.00000000000E+00 -0.00000000000E+00 -0.74505805969E-08  0.93827000000E+00  0.93827000000E+00 0.  1.
     999902    2    1    2    0    0  0.10406669351E-01 -0.49434039719E-02  0.13264911329E-01  0.10263603135E+01  0.10262099197E+01 0.  0.
     999903    2    3    3    0    0  0.27710263628E-01 -0.33149619911E-01  0.12944511180E+00  0.13810762203E+00  0.21234930733E-01 0.  0.
         14    1    1    2    0    0 -0.10406669351E-01  0.49434039719E-02 -0.13264911329E-01  0.17569686462E-01  0.00000000000E+00 0. -1.
     999901    1    3    3    0    0 -0.17303594277E-01  0.28206215939E-01 -0.11618020047E+00  0.88825269151E+00  0.88000000000E+00 0.  1.
        -11    1    4    4    0    0  0.30475335250E-01 -0.24816660581E-01  0.10345254978E+00  0.11066753760E+00  0.51100000000E-03 0.  1.
         11    1    4    4    0    0 -0.27650716221E-02 -0.83329593299E-02  0.25992562018E-01  0.27440084430E-01  0.51100000000E-03 0. -1.
</event>
<event>
 8    1  0.1166736E+005  0.1043930E+01  0.7957747E-01            NaN
         13   -1    0    0    0    0  0.00000000000E+00  0.00000000000E+00  0.74505805969E-08  0.10566000000E+00  0.10566000000E+00 0. -1.
     999900   -1    0    0    0    0 -0.00000000000E+00 -0.00000000000E+00 -0.74505805969E-08  0.93827000000E+00  0.93827000000E+00 0. -1.
     999902    2    1    2    0    0  0.19700879846E-01  0.23299191751E-02 -0.11636399803E-01  0.10209308915E+01  0.10206718015E+01 0.  0.
     999903    2    3    3    0    0  0.53264258472E-02  0.10703541884E+00 -0.74998210372E-01  0.13234516937E+00  0.20138535136E-01 0.  0.
         14    1    1    2    0    0 -0.19700879846E-01 -0.23299191751E-02  0.11636399803E-01  0.22999108470E-01  0.00000000000E+00 0.  1.
     999901    1    3    3    0    0  0.14374453998E-01 -0.10470549967E+00  0.63361810569E-01  0.88858572216E+00  0.88000000000E+00 0.  1.
        -11    1    4    4    0    0 -0.48915647638E-02  0.71066894858E-01 -0.54552960445E-01  0.89725790968E-01  0.51100000000E-03 0. -1.
         11    1    4    4    0    0  0.10217990611E-01  0.35968523985E-01 -0.20445249927E-01  0.42619378402E-01  0.51100000000E-03 0.  1.
</event>
<event>
 8    1  0.1166736E+005  0.1043930E+01  0.7957747E-01            NaN
         13   -1    0    0    0    0  0.00000000000E+00  0.00000000000E+00  0.74505805969E-08  0.10566000000E+00  0.10566000000E+00 0. -1.
     999900   -1    0    0    0    0 -0.00000000000E+00 -0.00000000000E+00 -0.74505805969E-08  0.93827000000E+00  0.93827000000E+00 0. -1.
     999902    2    1    2    0    0  0.13080922775E-01  0.15726086691E-01 -0.68053262577E-02  0.10223723376E+01  0.10221450307E+01 0.  0.
     999903    2    3    3    0    0  0.31907650427E-01  0.10405144201E+00  0.75512361283E-01  0.13392874582E+00  0.19748202717E-01 0.  0.
         14    1    1    2    0    0 -0.13080922775E-01 -0.15726086691E-01  0.68053262577E-02  0.21557662414E-01  0.00000000000E+00 0.  1.
     999901    1    3    3    0    0 -0.18826727652E-01 -0.88325355319E-01 -0.82317687541E-01  0.88844359177E+00  0.88000000000E+00 0. -1.
        -11    1    4    4    0    0  0.19225786427E-04  0.29401518696E-01  0.18762413832E-01  0.34881785577E-01  0.51100000000E-03 0. -1.
         11    1    4    4    0    0  0.31888424640E-01  0.74649923314E-01  0.56749947451E-01  0.99046960244E-01  0.51100000000E-03 0.  1.
</event>
<event>
 8    1  0.1166736E+005  0.1043930E+01  0.7957747E-01            NaN
         13   -1    0    0    0    0  0.00000000000E+00  0.00000000000E+00  0.74505805969E-08  0.10566000000E+00  0.10566000000E+00 0.  1.
     999900   -1    0    0    0    0 -0.00000000000E+00 -0.00000000000E+00 -0.74505805969E-08  0.93827000000E+00  0.93827000000E+00 0.  1.
     999902    2    1    2    0    0  0.42706478704E-02  0.14496365520E-01  0.18293413657E-01  0.10202017040E+01  0.10199257252E+01 0.  0.
     999903    2    3    3    0    0  0.57733944269E-01  0.10324333357E+00  0.57819182116E-01  0.13324249709E+00  0.20447761778E-01 0.  0.
         14    1    1    2    0    0 -0.42706478704E-02 -0.14496365520E-01 -0.18293413657E-01  0.23728295972E-01  0.00000000000E+00 0. -1.
     999901    1    3    3    0    0 -0.53463296399E-01 -0.88746968054E-01 -0.39525768459E-01  0.88695920694E+00  0.88000000000E+00 0.  1.
        -11    1    4    4    0    0  0.33154682801E-01  0.74016485290E-01  0.32246870308E-01  0.87279979675E-01  0.51100000000E-03 0.  1.
         11    1    4    4    0    0  0.24579261467E-01  0.29226848284E-01  0.25572311807E-01  0.45962517414E-01  0.51100000000E-03 0. -1.
</event>
<event>
 8    1  0.1166736E+005  0.1043930E+01  0.7957747E-01            NaN
         13   -1    0    0    0    0  0.00000000000E+00  0.00000000000E+00  0.74505805969E-08  0.10566000000E+00  0.10566000000E+00 0.  1.
     999900   -1    0    0    0    0 -0.00000000000E+00 -0.00000000000E+00 -0.74505805969E-08  0.93827000000E+00  0.93827000000E+00 0.  1.
     999902    2    1    2    0    0  0.98062883258E-02  0.55429010766E-02 -0.18676169043E-01  0.10221197654E+01  0.10218870429E+01 0.  0.
     999903    2    3    3    0    0  0.11184143156E+00  0.67288862496E-01 -0.23759255517E-01  0.13406032371E+00  0.19270997433E-01 0.  0.
         14    1    1    2    0    0 -0.98062883258E-02 -0.55429010766E-02  0.18676169043E-01  0.21810234597E-01  0.00000000000E+00 0.  1.
     999901    1    3    3    0    0 -0.10203514323E+00 -0.61745961419E-01  0.50830864745E-02  0.88805944169E+00  0.88000000000E+00 0.  1.
        -11    1    4    4    0    0  0.30339213406E-01  0.12016965505E-01 -0.12470158774E-01  0.34937677526E-01  0.51100000000E-03 0. -1.
         11    1    4    4    0    0  0.81502218153E-01  0.55271896991E-01 -0.11289096744E-01  0.99122646187E-01  0.51100000000E-03 0.  1.
</event>
<event>
 8    1  0.1166736E+005  0.1043930E+01  0.7957747E-01            NaN
         13   -1    0    0    0    0  0.00000000000E+00  0.00000000000E+00  0.74505805969E-08  0.10566000000E+00  0.10566000000E+00 0. -1.
     999900   -1    0    0    0    0 -0.00000000000E+00 -0.00000000000E+00 -0.74505805969E-08  0.93827000000E+00  0.93827000000E+00 0. -1.
     999902    2    1    2    0    0 -0.17615920463E-01  0.65138202230E-02 -0.14469105822E-01  0.10202212351E+01  0.10199457158E+01 0.  0.
     999903    2    3    3    0    0 -0.10208875837E+00 -0.63251700121E-01 -0.52063559559E-01  0.13263110951E+00  0.21389362353E-01 0.  0.
         14    1    1    2    0    0  0.17615920463E-01 -0.65138202230E-02  0.14469105822E-01  0.23708764855E-01  0.00000000000E+00 0. -1.
     999901    1    3    3    0    0  0.84472837908E-01  0.69765520344E-01  0.37594453737E-01  0.88759012564E+00  0.88000000000E+00 0.  1.
        -11    1    4    4    0    0 -0.58699337758E-01 -0.47186794533E-01 -0.37412846381E-01  0.84096302099E-01  0.51100000000E-03 0. -1.
         11    1    4    4    0    0 -0.43389420614E-01 -0.16064905588E-01 -0.14650713178E-01  0.48534807411E-01  0.51100000000E-03 0.  1.
</event>
<event>
 8    1  0.1166736E+005  0.1043930E+01  0.7957747E-01            NaN
         13   -1    0    0    0    0  0.00000000000E+00  0.00000000000E+00  0.74505805969E-08  0.10566000000E+00  0.10566000000E+00 0.  1.
     999900   -1    0    0    0    0 -0.00000000000E+00 -0.00000000000E+00 -0.74505805969E-08  0.93827000000E+00  0.93827000000E+00 0.  1.
     999902    2    1    2    0    0 -0.21812864191E-01  0.67375962363E-02  0.58035402118E-02  0.10203741658E+01  0.10201022306E+01 0.  0.
     999903    2    3    3    0    0 -0.47868084810E-01 -0.10263412799E-02 -0.12125977445E+00  0.13083257642E+00  0.10991962258E-01 0.  0.
         14    1    1    2    0    0  0.21812864191E-01 -0.67375962363E-02 -0.58035402118E-02  0.23555834230E-01  0.00000000000E+00 0.  1.
     999901    1    3    3    0    0  0.26055220618E-01  0.77639375163E-02  0.12706331466E+00  0.88954158935E+00  0.88000000000E+00 0. -1.
        -11    1    4    4    0    0 -0.21664244362E-01  0.48965884883E-02 -0.57462183062E-01  0.61607464368E-01  0.51100000000E-03 0. -1.
         11    1    4    4    0    0 -0.26203840448E-01 -0.59229297683E-02 -0.63797591386E-01  0.69225112054E-01  0.51100000000E-03 0.  1.
</event>
<event>
 8    1  0.1166736E+005  0.1043930E+01  0.7957747E-01            NaN
         13   -1    0    0    0    0  0.00000000000E+00  0.00000000000E+00  0.74505805969E-08  0.10566000000E+00  0.10566000000E+00 0.  1.
     999900   -1    0    0    0    0 -0.00000000000E+00 -0.00000000000E+00 -0.74505805969E-08  0.93827000000E+00  0.93827000000E+00 0.  1.
     999902    2    1    2    0    0 -0.28888657435E-02 -0.44423235951E-02  0.22995495131E-01  0.10203318522E+01  0.10200589277E+01 0.  0.
     999903    2    3    3    0    0 -0.25400574159E-01  0.56365071361E-02  0.12942557829E+00  0.13357612344E+00  0.20362737010E-01 0.  0.
         14    1    1    2    0    0  0.28888657435E-02  0.44423235951E-02 -0.22995495131E-01  0.23598147820E-01  0.00000000000E+00 0. -1.
     999901    1    3    3    0    0  0.22511708415E-01 -0.10078830731E-01 -0.10643008316E+00  0.88675572874E+00  0.88000000000E+00 0.  1.
        -11    1    4    4    0    0 -0.86707063556E-02 -0.70315860642E-04  0.89364366227E-01  0.89785506432E-01  0.51100000000E-03 0. -1.
         11    1    4    4    0    0 -0.16729867803E-01  0.57068229967E-02  0.40061212062E-01  0.43790617012E-01  0.51100000000E-03 0.  1.
</event>
<event>
 8    1  0.1166736E+005  0.1043930E+01  0.7957747E-01            NaN
         13   -1    0    0    0    0  0.00000000000E+00  0.00000000000E+00  0.74505805969E-08  0.10566000000E+00  0.10566000000E+00 0.  1.
     999900   -1    0    0    0    0 -0.00000000000E+00 -0.00000000000E+00 -0.74505805969E-08  0.93827000000E+00  0.93827000000E+00 0.  1.
     999902    2    1    2    0    0 -0.14528581024E-01  0.18185340614E-01 -0.20864322541E-02  0.10205603727E+01  0.10202927692E+01 0.  0.
     999903    2    3    3    0    0 -0.81005279949E-01 -0.96549231169E-01 -0.26342909048E-01  0.13029549633E+00  0.19983945748E-01 0.  0.
         14    1    1    2    0    0  0.14528581024E-01 -0.18185340614E-01  0.20864322541E-02  0.23369627284E-01  0.00000000000E+00 0. -1.
     999901    1    3    3    0    0  0.66476698924E-01  0.11473457178E+00  0.24256476794E-01  0.89026487639E+00  0.88000000000E+00 0. -1.
        -11    1    4    4    0    0 -0.68830314626E-01 -0.75174386192E-01 -0.14376988540E-01  0.10293570552E+00  0.51100000000E-03 0. -1.
         11    1    4    4    0    0 -0.12174965323E-01 -0.21374844977E-01 -0.11965920509E-01  0.27359790807E-01  0.51100000000E-03 0.  1.
</event>
<event>
 8    1  0.1166736E+005  0.1043930E+01  0.7957747E-01            NaN
         13   -1    0    0    0    0  0.00000000000E+00  0.00000000000E+00  0.74505805969E-08  0.10566000000E+00  0.10566000000E+00 0. -1.
     999900   -1    0    0    0    0 -0.00000000000E+00 -0.00000000000E+00 -0.74505805969E-08  0.93827000000E+00  0.93827000000E+00 0.  1.
     999902    2    1    2    0    0 -0.76327953877E-02  0.51599967312E-02 -0.23115593539E-01  0.10190459530E+01  0.10187420863E+01 0.  0.
     999903    2    3    3    0    0  0.51644392507E-01 -0.11494080206E+00 -0.19356279314E-01  0.12890432418E+00  0.19055917378E-01 0.  0.
         14    1    1    2    0    0  0.76327953877E-02 -0.51599967312E-02  0.23115593539E-01  0.24884047025E-01  0.00000000000E+00 0. -1.
     999901    1    3    3    0    0 -0.59277187894E-01  0.12010079879E+00 -0.37593142254E-02  0.89014162880E+00  0.88000000000E+00 0.  1.
        -11    1    4    4    0    0  0.20957192856E-01 -0.69557500057E-01 -0.11748003033E-01  0.73591619379E-01  0.51100000000E-03 0. -1.
         11    1    4    4    0    0  0.30687199651E-01 -0.45383302003E-01 -0.76082762808E-02  0.55312704798E-01  0.51100000000E-03 0.  1.
</event>
<event>
 8    1  0.1166736E+005  0.1043930E+01  0.7957747E-01            NaN
         13   -1    0    0    0    0  0.00000000000E+00  0.00000000000E+00  0.74505805969E-08  0.10566000000E+00  0.10566000000E+00 0. -1.
     999900   -1    0    0    0    0 -0.00000000000E+00 -0.00000000000E+00 -0.74505805969E-08  0.93827000000E+00  0.93827000000E+00 0. -1.
     999902    2    1    2    0    0  0.20901820007E-01  0.56613809791E-02  0.13001712936E-01  0.10186716973E+01  0.10183585052E+01 0.  0.
     999903    2    3    3    0    0  0.45260230908E-01  0.12089703569E+00  0.47574837397E-02  0.13078625674E+00  0.20440879635E-01 0.  0.
         14    1    1    2    0    0 -0.20901820007E-01 -0.56613809791E-02 -0.13001712936E-01  0.25258302664E-01  0.00000000000E+00 0.  1.
     999901    1    3    3    0    0 -0.24358410901E-01 -0.11523565471E+00  0.82442291963E-02  0.88788544059E+00  0.88000000000E+00 0. -1.
        -11    1    4    4    0    0  0.40848988902E-01  0.82646871852E-01  0.32095212821E-02  0.92248075693E-01  0.51100000000E-03 0.  1.
         11    1    4    4    0    0  0.44112420064E-02  0.38250163842E-01  0.15479624576E-02  0.38538181052E-01  0.51100000000E-03 0. -1.
</event>
<event>
 8    1  0.1166736E+005  0.1043930E+01  0.7957747E-01            NaN
         13   -1    0    0    0    0  0.00000000000E+00  0.00000000000E+00  0.74505805969E-08  0.10566000000E+00  0.10566000000E+00 0. -1.
     999900   -1    0    0    0    0 -0.00000000000E+00 -0.00000000000E+00 -0.74505805969E-08  0.93827000000E+00  0.93827000000E+00 0.  1.
     999902    2    1    2    0    0 -0.21412625978E-01  0.47901214773E-02  0.68457184453E-02  0.10209450119E+01  0.10206862435E+01 0.  0.
     999903    2    3    3    0    0  0.12111090172E+00 -0.20766315116E-01  0.27795843090E-01  0.12886598230E+00  0.27106127413E-01 0.  0.
         14    1    1    2    0    0  0.21412625978E-01 -0.47901214773E-02 -0.68457184453E-02  0.22984988059E-01  0.00000000000E+00 0. -1.
     999901    1    3    3    0    0 -0.14252352770E+00  0.25556436593E-01 -0.20950124644E-01  0.89207902964E+00  0.88000000000E+00 0.  1.
        -11    1    4    4    0    0  0.61089961776E-01 -0.67108387334E-02  0.53828261750E-03  0.61461936639E-01  0.51100000000E-03 0.  1.
         11    1    4    4    0    0  0.60020939942E-01 -0.14055476383E-01  0.27257560472E-01  0.67404045663E-01  0.51100000000E-03 0. -1.
</event>
<event>
 8    1  0.1166736E+005  0.1043930E+01  0.7957747E-01            NaN
         13   -1    0    0    0    0  0.00000000000E+00  0.00000000000E+00  0.74505805969E-08  0.10566000000E+00  0.10566000000E+00 0. -1.
     999900   -1    0    0    0    0 -0.00000000000E+00 -0.00000000000E+00 -0.74505805969E-08  0.93827000000E+00  0.93827000000E+00 0. -1.
     999902    2    1    2    0    0 -0.14987207347E-01 -0.13301895910E-01  0.10988288077E-01  0.10210761318E+01  0.10208203405E+01 0.  0.
     999903    2    3    3    0    0 -0.88601920814E-01 -0.57860433204E-01  0.80012574217E-01  0.13418891155E+00  0.20162386962E-01 0.  0.
         14    1    1    2    0    0  0.14987207347E-01  0.13301895910E-01 -0.10988288077E-01  0.22853868244E-01  0.00000000000E+00 0.  1.
     999901    1    3    3    0    0  0.73614713467E-01  0.44558537294E-01 -0.69024286140E-01  0.88688722020E+00  0.88000000000E+00 0. -1.
        -11    1    4    4    0    0 -0.73665238313E-01 -0.53078562155E-01  0.60314160266E-01  0.10900440425E+00  0.51100000000E-03 0. -1.
         11    1    4    4    0    0 -0.14936682501E-01 -0.47818710493E-02  0.19698413951E-01  0.25184507302E-01  0.51100000000E-03 0.  1.
</event>
<event>
 8    1  0.1166736E+005  0.1043930E+01  0.7957747E-01            NaN
         13   -1    0    0    0    0  0.00000000000E+00  0.00000000000E+00  0.74505805969E-08  0.10566000000E+00  0.10566000000E+00 0. -1.
     999900   -1    0    0    0    0 -0.00000000000E+00 -0.00000000000E+00 -0.74505805969E-08  0.93827000000E+00  0.93827000000E+00 0.  1.
     999902    2    1    2    0    0  0.14145225475E-01  0.18554423600E-01 -0.60286180086E-02  0.10198323181E+01  0.10195475755E+01 0.  0.
     999903    2    3    3    0    0 -0.51373546234E-01 -0.48944549434E-01  0.10448211105E+00  0.12794586676E+00  0.20465168441E-01 0.  0.
         14    1    1    2    0    0 -0.14145225475E-01 -0.18554423600E-01  0.60286180086E-02  0.24097681920E-01  0.00000000000E+00 0. -1.
     999901    1    3    3    0    0  0.65518771709E-01  0.67498973034E-01 -0.11051072906E+00  0.89188645132E+00  0.88000000000E+00 0.  1.
        -11    1    4    4    0    0 -0.26624566601E-01 -0.31119911696E-01  0.43428046968E-01  0.59695668478E-01  0.51100000000E-03 0.  1.
         11    1    4    4    0    0 -0.24748979634E-01 -0.17824637738E-01  0.61054064085E-01  0.68250198284E-01  0.51100000000E-03 0. -1.
</event>
<event>
 8    1  0.1166736E+005  0.1043930E+01  0.7957747E-01            NaN
         13   -1    0    0    0    0  0.00000000000E+00  0.00000000000E+00  0.74505805969E-08  0.10566000000E+00  0.10566000000E+00 0.  1.
     999900   -1    0    0    0    0 -0.00000000000E+00 -0.00000000000E+00 -0.74505805969E-08  0.93827000000E+00  0.93827000000E+00 0. -1.
     999902    2    1    2    0    0 -0.74467348394E-02  0.19523872061E-01  0.10241519926E-01  0.10206593281E+01  0.10203940121E+01 0.  0.
     999903    2    3    3    0    0 -0.66093390241E-01 -0.10564915320E+00  0.29181703667E-01  0.12966749481E+00  0.20784791928E-01 0.  0.
         14    1    1    2    0    0  0.74467348394E-02 -0.19523872061E-01 -0.10241519926E-01  0.23270671894E-01  0.00000000000E+00 0. -1.
     999901    1    3    3    0    0  0.58646655401E-01  0.12517302526E+00 -0.18940183741E-01  0.89099183330E+00  0.88000000000E+00 0.  1.
        -11    1    4    4    0    0 -0.54175715654E-01 -0.85161792865E-01  0.31777500955E-01  0.10581875929E+00  0.51100000000E-03 0.  1.
         11    1    4    4    0    0 -0.11917674587E-01 -0.20487360336E-01 -0.25957972881E-02  0.23848735515E-01  0.51100000000E-03 0. -1.
</event>
<event>
 8    1  0.1166736E+005  0.1043930E+01  0.7957747E-01            NaN
         13   -1    0    0    0    0  0.00000000000E+00  0.00000000000E+00  0.74505805969E-08  0.10566000000E+00  0.10566000000E+00 0.  1.
     999900   -1    0    0    0    0 -0.00000000000E+00 -0.00000000000E+00 -0.74505805969E-08  0.93827000000E+00  0.93827000000E+00 0. -1.
     999902    2    1    2    0    0  0.89072064216E-03 -0.21671970073E-01 -0.14538599405E-01  0.10178179617E+01  0.10174829555E+01 0.  0.
     999903    2    3    3    0    0 -0.34598615668E-01  0.53680419310E-01  0.10632310518E+00  0.12566044917E+00  0.20181530366E-01 0.  0.
         14    1    1    2    0    0 -0.89072064216E-03  0.21671970073E-01  0.14538599405E-01  0.26112038273E-01  0.00000000000E+00 0.  1.
     999901    1    3    3    0    0  0.35489336310E-01 -0.75352389383E-01 -0.12086170458E+00  0.89215751256E+00  0.88000000000E+00 0. -1.
        -11    1    4    4    0    0 -0.99789423784E-02  0.33391312285E-01  0.50453769410E-01  0.61322124847E-01  0.51100000000E-03 0. -1.
         11    1    4    4    0    0 -0.24619673289E-01  0.20289107026E-01  0.55869335766E-01  0.64338324323E-01  0.51100000000E-03 0.  1.
</event>
<event>
 8    1  0.1166736E+005  0.1043930E+01  0.7957747E-01            NaN
         13   -1    0    0    0    0  0.00000000000E+00  0.00000000000E+00  0.74505805969E-08  0.10566000000E+00  0.10566000000E+00 0. -1.
     999900   -1    0    0    0    0 -0.00000000000E+00 -0.00000000000E+00 -0.74505805969E-08  0.93827000000E+00  0.93827000000E+00 0.  1.
     999902    2    1    2    0    0  0.10601698376E-01 -0.14740009861E-01  0.15570460115E-01  0.10200113226E+01  0.10197308445E+01 0.  0.
     999903    2    3    3    0    0 -0.11577850981E+00  0.41670506073E-01 -0.29689686903E-01  0.12804574917E+00  0.19316882799E-01 0.  0.
         14    1    1    2    0    0 -0.10601698376E-01  0.14740009861E-01 -0.15570460115E-01  0.23918677375E-01  0.00000000000E+00 0.  1.
     999901    1    3    3    0    0  0.12638020819E+00 -0.56410515934E-01  0.45260147017E-01  0.89196557346E+00  0.88000000000E+00 0. -1.
        -11    1    4    4    0    0 -0.63207692607E-01  0.31634783771E-01 -0.12137175205E-01  0.71718505924E-01  0.51100000000E-03 0.  1.
         11    1    4    4    0    0 -0.52570817202E-01  0.10035722303E-01 -0.17552511697E-01  0.56327243242E-01  0.51100000000E-03 0. -1.
</event>
<event>
 8    1  0.1166736E+005  0.1043930E+01  0.7957747E-01            NaN
         13   -1    0    0    0    0  0.00000000000E+00  0.00000000000E+00  0.74505805969E-08  0.10566000000E+00  0.10566000000E+00 0.  1.
     999900   -1    0    0    0    0 -0.00000000000E+00 -0.00000000000E+00 -0.74505805969E-08  0.93827000000E+00  0.93827000000E+00 0.  1.
     999902    2    1    2    0    0 -0.22391778862E-02  0.51829563712E-02  0.22690309047E-01  0.10205478042E+01  0.10202799095E+01 0.  0.
     999903    2    3    3    0    0 -0.11288681809E+00 -0.26915142865E-01  0.60262178230E-01  0.13224333300E+00  0.19720810937E-01 0.  0.
         14    1    1    2    0    0  0.22391778862E-02 -0.51829563712E-02 -0.22690309047E-01  0.23382195769E-01  0.00000000000E+00 0. -1.
     999901    1    3    3    0    0  0.11064764020E+00  0.32098099236E-01 -0.37571869184E-01  0.88830447123E+00  0.88000000000E+00 0.  1.
        -11    1    4    4    0    0 -0.38639822760E-01 -0.72922875546E-02  0.30941487442E-01  0.50038486456E-01  0.51100000000E-03 0.  1.
         11    1    4    4    0    0 -0.74246995328E-01 -0.19622855311E-01  0.29320690789E-01  0.82204846543E-01  0.51100000000E-03 0. -1.
</event>
<event>
 8    1  0.1166736E+005  0.1043930E+01  0.7957747E-01            NaN
         13   -1    0    0    0    0  0.00000000000E+00  0.00000000000E+00  0.74505805969E-08  0.10566000000E+00  0.10566000000E+00 0.  1.
     999900   -1    0    0    0    0 -0.00000000000E+00 -0.00000000000E+00 -0.74505805969E-08  0.93827000000E+00  0.93827000000E+00 0.  1.
     999902    2    1    2    0    0 -0.16002314075E-01 -0.15531136962E-01  0.60863827518E-02  0.10208143273E+01  0.10205525741E+01 0.  0.
     999903    2    3    3    0    0  0.17820378632E-01 -0.30824105074E-01 -0.12396137655E+00  0.13048277716E+00  0.19789919424E-01 0.  0.
         14    1    1    2    0    0  0.16002314075E-01  0.15531136962E-01 -0.60863827518E-02  0.23115672737E-01  0.00000000000E+00 0. -1.
     999901    1    3    3    0    0 -0.33822692707E-01  0.15292968112E-01  0.13004775930E+00  0.89033155011E+00  0.88000000000E+00 0. -1.
        -11    1    4    4    0    0  0.12399794745E-01 -0.70407238094E-02 -0.67227249390E-01  0.68724747239E-01  0.51100000000E-03 0. -1.
         11    1    4    4    0    0  0.54205838872E-02 -0.23783381264E-01 -0.56734127157E-01  0.61758029918E-01  0.51100000000E-03 0.  1.
</event>
<event>
 8    1  0.1166736E+005  0.1043930E+01  0.7957747E-01            NaN
         13   -1    0    0    0    0  0.00000000000E+00  0.00000000000E+00  0.74505805969E-08  0.10566000000E+00  0.10566000000E+00 0. -1.
     999900   -1    0    0    0    0 -0.00000000000E+00 -0.00000000000E+00 -0.74505805969E-08  0.93827000000E+00  0.93827000000E+00 0. -1.
     999902    2    1    2    0    0 -0.21560601503E-01  0.93514381910E-02  0.18884505559E-02  0.10203529947E+01  0.10200805648E+01 0.  0.
     999903    2    3    3    0    0 -0.12490414230E+00  0.41855533171E-01 -0.98800786389E-02  0.13363156049E+00  0.20170463155E-01 0.  0.
         14    1    1    2    0    0  0.21560601503E-01 -0.93514381910E-02 -0.18884505559E-02  0.23577005300E-01  0.00000000000E+00 0.  1.
     999901    1    3    3    0    0  0.10334354080E+00 -0.32504094980E-01  0.11768529195E-01  0.88672143421E+00  0.88000000000E+00 0. -1.
        -11    1    4    4    0    0 -0.11284397190E+00  0.31359000222E-01 -0.10735037283E-01  0.11761229117E+00  0.51100000000E-03 0. -1.
         11    1    4    4    0    0 -0.12060170399E-01  0.10496532949E-01  0.85495864367E-03  0.16019269312E-01  0.51100000000E-03 0.  1.
</event>
<event>
 8    1  0.1166736E+005  0.1043930E+01  0.7957747E-01            NaN
         13   -1    0    0    0    0  0.00000000000E+00  0.00000000000E+00  0.74505805969E-08  0.10566000000E+00  0.10566000000E+00 0. -1.
     999900   -1    0    0    0    0 -0.00000000000E+00 -0.00000000000E+00 -0.74505805969E-08  0.93827000000E+00  0.93827000000E+00 0. -1.
     999902    2    1    2    0    0  0.60738521866E-02  0.20675705964E-01  0.85315017253E-02  0.10207532224E+01  0.10204900676E+01 0.  0.
     999903    2    3    3    0    0  0.10706964144E+00 -0.33916431153E-01  0.64905016896E-01  0.13150723615E+00  0.21616186562E-01 0.  0.
         14    1    1    2    0    0 -0.60738521866E-02 -0.20675705964E-01 -0.85315017253E-02  0.23176777584E-01  0.00000000000E+00 0.  1.
     999901    1    3    3    0    0 -0.10099578925E+00  0.54592137117E-01 -0.56373515171E-01  0.88924598627E+00  0.88000000000E+00 0. -1.
        -11    1    4    4    0    0  0.92897287107E-01 -0.21273943535E-01  0.55830061671E-01  0.11045244919E+00  0.51100000000E-03 0. -1.
         11    1    4    4    0    0  0.14172354330E-01 -0.12642487618E-01  0.90749552246E-02  0.21054786956E-01  0.51100000000E-03 0.  1.
</event>
<event>
 8    1  0.1166736E+005  0.1043930E+01  0.7957747E-01            NaN
         13   -1    0    0    0    0  0.00000000000E+00  0.00000000000E+00  0.74505805969E-08  0.10566000000E+00  0.10566000000E+00 0. -1.
     999900   -1    0    0    0    0 -0.00000000000E+00 -0.00000000000E+00 -0.74505805969E-08  0.93827000000E+00  0.93827000000E+00 0. -1.
     999902    2    1    2    0    0  0.83419482155E-02 -0.98963877249E-02 -0.19340361168E-01  0.10206582111E+01  0.10203928693E+01 0.  0.
     999903    2    3    3    0    0 -0.36696658946E-01  0.85641955469E-01 -0.90579992603E-01  0.13148379834E+00  0.20051554868E-01 0.  0.
         14    1    1    2    0    0 -0.83419482155E-02  0.98963877249E-02  0.19340361168E-01  0.23271788933E-01  0.00000000000E+00 0. -1.
     999901    1    3    3    0    0  0.45038607161E-01 -0.95538343194E-01  0.71239631435E-01  0.88917441272E+00  0.88000000000E+00 0. -1.
        -11    1    4    4    0    0 -0.14074745057E-01  0.57434824505E-01 -0.57041940473E-01  0.82163870456E-01  0.51100000000E-03 0.  1.
         11    1    4    4    0    0 -0.22621913889E-01  0.28207130964E-01 -0.33538052130E-01  0.49319927888E-01  0.51100000000E-03 0. -1.
</event>
<event>
 8    1  0.1166736E+005  0.1043930E+01  0.7957747E-01            NaN
         13   -1    0    0    0    0  0.00000000000E+00  0.00000000000E+00  0.74505805969E-08  0.10566000000E+00  0.10566000000E+00 0.  1.
     999900   -1    0    0    0    0 -0.00000000000E+00 -0.00000000000E+00 -0.74505805969E-08  0.93827000000E+00  0.93827000000E+00 0.  1.
     999902    2    1    2    0    0 -0.18208999933E-01  0.51785690001E-02 -0.10716165531E-01  0.10221763461E+01  0.10219448425E+01 0.  0.
     999903    2    3    3    0    0  0.12395061862E+00  0.26218969636E-03  0.32845365413E-01  0.12969041626E+00  0.19415494874E-01 0.  0.
         14    1    1    2    0    0  0.18208999933E-01 -0.51785690001E-02  0.10716165531E-01  0.21753653926E-01  0.00000000000E+00 0.  1.
     999901    1    3    3    0    0 -0.14215961855E+00  0.49163793037E-02 -0.43561530944E-01  0.89248592981E+00  0.88000000000E+00 0.  1.
        -11    1    4    4    0    0  0.24849157859E-01  0.47339713931E-02  0.36143508956E-03  0.25303811725E-01  0.51100000000E-03 0. -1.
         11    1    4    4    0    0  0.99101460762E-01 -0.44717816967E-02  0.32483930324E-01  0.10438660454E+00  0.51100000000E-03 0.  1.
</event>
<event>
 8    1  0.1166736E+005  0.1043930E+01  0.7957747E-01            NaN
         13   -1    0    0    0    0  0.00000000000E+00  0.00000000000E+00  0.74505805969E-08  0.10566000000E+00  0.10566000000E+00 0. -1.
     999900   -1    0    0    0    0 -0.00000000000E+00 -0.00000000000E+00 -0.74505805969E-08  0.93827000000E+00  0.93827000000E+00 0.  1.
     999902    2    1    2    0    0 -0.23560743003E-01 -0.54926487283E-02 -0.54926477429E-02  0.10191217961E+01  0.10188198017E+01 0.  0.
     999903    2    3    3    0    0 -0.73198007140E-01 -0.34933709419E-01  0.10049953577E+00  0.13088479113E+00  0.21268745996E-01 0.  0.
         14    1    1    2    0    0  0.23560743003E-01  0.54926487283E-02  0.54926477429E-02  0.24808203888E-01  0.00000000000E+00 0.  1.
     999901    1    3    3    0    0  0.49637264137E-01  0.29441060690E-01 -0.10599218352E+00  0.88823700498E+00  0.88000000000E+00 0.  1.
        -11    1    4    4    0    0 -0.43706364395E-01 -0.21949885805E-01  0.43749831712E-01  0.65622806030E-01  0.51100000000E-03 0. -1.
         11    1    4    4    0    0 -0.29491642745E-01 -0.12983823613E-01  0.56749704063E-01  0.65261985104E-01  0.51100000000E-03 0.  1.
</event>
<event>
 8    1  0.1166736E+005  0.1043930E+01  0.7957747E-01            NaN
         13   -1    0    0    0    0  0.00000000000E+00  0.00000000000E+00  0.74505805969E-08  0.10566000000E+00  0.10566000000E+00 0.  1.
     999900   -1    0    0    0    0 -0.00000000000E+00 -0.00000000000E+00 -0.74505805969E-08  0.93827000000E+00  0.93827000000E+00 0.  1.
     999902    2    1    2    0    0 -0.93900250606E-02 -0.21332833188E-01 -0.73169488994E-02  0.10195005079E+01  0.10192077735E+01 0.  0.
     999903    2    3    3    0    0  0.12821213151E-01 -0.15609254692E-02  0.12689761152E+00  0.12882783197E+00  0.18077236709E-01 0.  0.
         14    1    1    2    0    0  0.93900250606E-02  0.21332833188E-01  0.73169488994E-02  0.24429492088E-01  0.00000000000E+00 0.  1.
     999901    1    3    3    0    0 -0.22211238211E-01 -0.19771907719E-01 -0.13421456042E+00  0.89067267594E+00  0.88000000000E+00 0.  1.
        -11    1    4    4    0    0  0.42860890772E-02  0.73491360105E-02  0.74927595057E-01  0.75410781601E-01  0.51100000000E-03 0. -1.
         11    1    4    4    0    0  0.85351240734E-02 -0.89100614797E-02  0.51970016460E-01  0.53417050371E-01  0.51100000000E-03 0.  1.
</event>
<event>
 8    1  0.1166736E+005  0.1043930E+01  0.7957747E-01            NaN
         13   -1    0    0    0    0  0.00000000000E+00  0.00000000000E+00  0.74505805969E-08  0.10566000000E+00  0.10566000000E+00 0.  1.
     999900   -1    0    0    0    0 -0.00000000000E+00 -0.00000000000E+00 -0.74505805969E-08  0.93827000000E+00  0.93827000000E+00 0.  1.
     999902    2    1    2    0    0  0.43528832382E-02 -0.20819957735E-01  0.14110043687E-01  0.10184052754E+01  0.10180853566E+01 0.  0.
     999903    2    3    3    0    0  0.12682800371E+00  0.12768640602E-01 -0.37821453570E-02  0.12910865476E+00  0.20158358130E-01 0.  0.
         14    1    1    2    0    0 -0.43528832382E-02  0.20819957735E-01 -0.14110043687E-01  0.25524724591E-01  0.00000000000E+00 0.  1.
     999901    1    3    3    0    0 -0.12247512047E+00 -0.33588598338E-01  0.17892189044E-01  0.88929662065E+00  0.88000000000E+00 0.  1.
        -11    1    4    4    0    0  0.78084467719E-01 -0.95857239120E-03 -0.67249475857E-02  0.78381050012E-01  0.51100000000E-03 0.  1.
         11    1    4    4    0    0  0.48743535989E-01  0.13727212993E-01  0.29428022287E-02  0.50727604746E-01  0.51100000000E-03 0. -1.
</event>
<event>
 8    1  0.1166736E+005  0.1043930E+01  0.7957747E-01            NaN
         13   -1    0    0    0    0  0.00000000000E+00  0.00000000000E+00  0.74505805969E-08  0.10566000000E+00  0.10566000000E+00 0.  1.
     999900   -1    0    0    0    0 -0.00000000000E+00 -0.00000000000E+00 -0.74505805969E-08  0.93827000000E+00  0.93827000000E+00 0. -1.
     999902    2    1    2    0    0 -0.12270510717E-01  0.58382578803E-02  0.20421593986E-01  0.10194005852E+01  0.10191054219E+01 0.  0.
     999903    2    3    3    0    0 -0.75685083982E-01 -0.83851732975E-01  0.64115726042E-01  0.13149581570E+00  0.20517752336E-01 0.  0.
         14    1    1    2    0    0  0.12270510717E-01 -0.58382578803E-02 -0.20421593986E-01  0.24529414776E-01  0.00000000000E+00 0. -1.
     999901    1    3    3    0    0  0.63414573265E-01  0.89689990856E-01 -0.43694132056E-01  0.88790476952E+00  0.88000000000E+00 0. -1.
        -11    1    4    4    0    0 -0.10415027553E-01 -0.23485339215E-01  0.11184572819E-01  0.28024805924E-01  0.51100000000E-03 0.  1.
         11    1    4    4    0    0 -0.65270056429E-01 -0.60366393761E-01  0.52931153223E-01  0.10347100978E+00  0.51100000000E-03 0. -1.
</event>
<event>
 8    1  0.1166736E+005  0.1043930E+01  0.7957747E-01            NaN
         13   -1    0    0    0    0  0.00000000000E+00  0.00000000000E+00  0.74505805969E-08  0.10566000000E+00  0.10566000000E+00 0. -1.
     999900   -1    0    0    0    0 -0.00000000000E+00 -0.00000000000E+00 -0.74505805969E-08  0.93827000000E+00  0.93827000000E+00 0.  1.
     999902    2    1    2    0    0 -0.21831232221E-01  0.81843102118E-02  0.29907456709E-02  0.10204240392E+01  0.10201532677E+01 0.  0.
     999903    2    3    3    0    0  0.84446677366E-01  0.49191182922E-02  0.95632197241E-01  0.12919562061E+00  0.19762393364E-01 0.  0.
         14    1    1    2    0    0  0.21831232221E-01 -0.81843102118E-02 -0.29907456709E-02  0.23505960810E-01  0.00000000000E+00 0. -1.
     999901    1    3    3    0    0 -0.10627790959E+00  0.32651919195E-02 -0.92641451570E-01  0.89122841858E+00  0.88000000000E+00 0.  1.
        -11    1    4    4    0    0  0.65279443150E-01 -0.43369142457E-02  0.75347122116E-01  0.99788097764E-01  0.51100000000E-03 0. -1.
         11    1    4    4    0    0  0.19167234216E-01  0.92560325380E-02  0.20285075125E-01  0.29407522841E-01  0.51100000000E-03 0.  1.
</event>
<event>
 8    1  0.1166736E+005  0.1043930E+01  0.7957747E-01            NaN
         13   -1    0    0    0    0  0.00000000000E+00  0.00000000000E+00  0.74505805969E-08  0.10566000000E+00  0.10566000000E+00 0.  1.
     999900   -1    0    0    0    0 -0.00000000000E+00 -0.00000000000E+00 -0.74505805969E-08  0.93827000000E+00  0.93827000000E+00 0. -1.
     999902    2    1    2    0    0  0.79736716641E-02  0.29724508242E-01  0.85803155835E-03  0.10131426317E+01  0.10126747405E+01 0.  0.
     999903    2    3    3    0    0 -0.51608073011E-01 -0.24035525598E-01  0.10591125292E+00  0.12326831198E+00  0.27143757145E-01 0.  0.
         14    1    1    2    0    0 -0.79736716641E-02 -0.29724508242E-01 -0.85803155835E-03  0.30787368321E-01  0.00000000000E+00 0.  1.
     999901    1    3    3    0    0  0.59581744676E-01  0.53760033840E-01 -0.10505322137E+00  0.88987431970E+00  0.88000000000E+00 0. -1.
        -11    1    4    4    0    0 -0.30520625276E-01 -0.27059656305E-01  0.58826166500E-01  0.71585700756E-01  0.51100000000E-03 0. -1.
         11    1    4    4    0    0 -0.21087447735E-01  0.30241307066E-02  0.47085086424E-01  0.51682611225E-01  0.51100000000E-03 0.  1.
</event>
<event>
 8    1  0.1166736E+005  0.1043930E+01  0.7957747E-01            NaN
         13   -1    0    0    0    0  0.00000000000E+00  0.00000000000E+00  0.74505805969E-08  0.10566000000E+00  0.10566000000E+00 0. -1.
     999900   -1    0    0    0    0 -0.00000000000E+00 -0.00000000000E+00 -0.74505805969E-08  0.93827000000E+00  0.93827000000E+00 0.  1.
     999902    2    1    2    0    0 -0.19231870948E-01 -0.10599804362E-01 -0.78814867579E-02  0.10205989360E+01  0.10203322251E+01 0.  0.
     999903    2    3    3    0    0 -0.64883092890E-01 -0.55211311493E-01 -0.10038682087E+00  0.13345100165E+00  0.21761235617E-01 0.  0.
         14    1    1    2    0    0  0.19231870948E-01  0.10599804362E-01  0.78814867579E-02  0.23331063975E-01  0.00000000000E+00 0.  1.
     999901    1    3    3    0    0  0.45651221942E-01  0.44611507131E-01  0.92505334116E-01  0.88714793438E+00  0.88000000000E+00 0. -1.
        -11    1    4    4    0    0 -0.65286060293E-01 -0.56490829470E-01 -0.97524517193E-01  0.13024890041E+00  0.51100000000E-03 0.  1.
         11    1    4    4    0    0  0.40296740334E-03  0.12795179765E-02 -0.28623036805E-02  0.32021012382E-02  0.51100000000E-03 0. -1.
</event>
<event>
 7    1  0.1166736E+005  0.1043930E+01  0.7957747E-01            NaN
         13   -1    0    0    0    0  0.00000000000E+00  0.00000000000E+00  0.74505805969E-08  0.10566000000E+00  0.10566000000E+00 0. -1.
     999900   -1    0    0    0    0 -0.00000000000E+00 -0.00000000000E+00 -0.74505805969E-08  0.93827000000E+00  0.93827000000E+00 0. -1.
     999902    2    1    2    0    0  0.83791225891E-02  0.21793483862E-01  0.98458969684E-02  0.10185901634E+01  0.10182749204E+01 0.  0.
         14    1    1    2    0    0 -0.83791225891E-02 -0.21793483862E-01 -0.98458969684E-02  0.25339836647E-01  0.00000000000E+00 0.  1.
     999901    1    3    3    0    0 -0.41167614707E-01  0.13021672408E+00  0.26660094205E-01  0.89093317839E+00  0.88000000000E+00 0.  1.
        -11    1    3    3    0    0  0.42858681273E-01 -0.47079302648E-01  0.11309979448E-03  0.63667897804E-01  0.51100000000E-03 0. -1.
         11    1    3    3    0    0  0.66880560231E-02 -0.61343937569E-01 -0.16927297031E-01  0.63989087160E-01  0.51100000000E-03 0.  1.
</event>
<event>
 8    1  0.1166736E+005  0.1043930E+01  0.7957747E-01            NaN
         13   -1    0    0    0    0  0.00000000000E+00  0.00000000000E+00  0.74505805969E-08  0.10566000000E+00  0.10566000000E+00 0. -1.
     999900   -1    0    0    0    0 -0.00000000000E+00 -0.00000000000E+00 -0.74505805969E-08  0.93827000000E+00  0.93827000000E+00 0.  1.
     999902    2    1    2    0    0 -0.17062813779E-01 -0.48360727067E-02  0.14687053804E-01  0.10209031296E+01  0.10206434065E+01 0.  0.
     999903    2    3    3    0    0  0.35594221825E-01  0.24724747887E-01 -0.11986063288E+00  0.12863092584E+00  0.17351714141E-01 0.  0.
         14    1    1    2    0    0  0.17062813779E-01  0.48360727067E-02 -0.14687053804E-01  0.23026870450E-01  0.00000000000E+00 0.  1.
     999901    1    3    3    0    0 -0.52657035604E-01 -0.29560820594E-01  0.13454768668E+00  0.89227220371E+00  0.88000000000E+00 0. -1.
        -11    1    4    4    0    0  0.14781260623E-01  0.15350307827E-01 -0.37195653224E-01  0.42870681774E-01  0.51100000000E-03 0.  1.
         11    1    4    4    0    0  0.20812961203E-01  0.93744400602E-02 -0.82664979657E-01  0.85760244071E-01  0.51100000000E-03 0. -1.
</event>
<event>
 8    1  0.1166736E+005  0.1043930E+01  0.7957747E-01            NaN
         13   -1    0    0    0    0  0.00000000000E+00  0.00000000000E+00  0.74505805969E-08  0.10566000000E+00  0.10566000000E+00 0.  1.
     999900   -1    0    0    0    0 -0.00000000000E+00 -0.00000000000E+00 -0.74505805969E-08  0.93827000000E+00  0.93827000000E+00 0.  1.
     999902    2    1    2    0    0  0.65902460387E-02  0.10810789423E-01 -0.21424986743E-01  0.10190435666E+01  0.10187396410E+01 0.  0.
     999903    2    3    3    0    0 -0.37668545978E-01  0.91696690328E-01 -0.85526924476E-01  0.13190748455E+00  0.16047657071E-01 0.  0.
         14    1    1    2    0    0 -0.65902460387E-02 -0.10810789423E-01  0.21424986743E-01  0.24886433408E-01  0.00000000000E+00 0. -1.
     999901    1    3    3    0    0  0.44258792017E-01 -0.80885900905E-01  0.64101937732E-01  0.88713608204E+00  0.88000000000E+00 0. -1.
        -11    1    4    4    0    0 -0.31748802905E-01  0.58483846911E-01 -0.59944298172E-01  0.89565209986E-01  0.51100000000E-03 0. -1.
         11    1    4    4    0    0 -0.59197430727E-02  0.33212843417E-01 -0.25582626303E-01  0.42342274567E-01  0.51100000000E-03 0.  1.
</event>
<event>
 8    1  0.1166736E+005  0.1043930E+01  0.7957747E-01            NaN
         13   -1    0    0    0    0  0.00000000000E+00  0.00000000000E+00  0.74505805969E-08  0.10566000000E+00  0.10566000000E+00 0. -1.
     999900   -1    0    0    0    0 -0.00000000000E+00 -0.00000000000E+00 -0.74505805969E-08  0.93827000000E+00  0.93827000000E+00 0. -1.
     999902    2    1    2    0    0 -0.14296576531E-01  0.18704543414E-01  0.21388651490E-02  0.10202904825E+01  0.10200165890E+01 0.  0.
     999903    2    3    3    0    0  0.66721752767E-02  0.69526201626E-01  0.11025633967E+00  0.13197076650E+00  0.19529775642E-01 0.  0.
         14    1    1    2    0    0  0.14296576531E-01 -0.18704543414E-01 -0.21388651490E-02  0.23639517528E-01  0.00000000000E+00 0.  1.
     999901    1    3    3    0    0 -0.20968751808E-01 -0.50821658211E-01 -0.10811747452E+00  0.88831971598E+00  0.88000000000E+00 0. -1.
        -11    1    4    4    0    0 -0.37470251419E-02  0.26703375652E-01  0.29504211921E-01  0.39973367517E-01  0.51100000000E-03 0. -1.
         11    1    4    4    0    0  0.10419200419E-01  0.42822825974E-01  0.80752127749E-01  0.91997398978E-01  0.51100000000E-03 0.  1.
</event>
<event>
 8    1  0.1166736E+005  0.1043930E+01  0.7957747E-01            NaN
         13   -1    0    0    0    0  0.00000000000E+00  0.00000000000E+00  0.74505805969E-08  0.10566000000E+00  0.10566000000E+00 0.  1.
     999900   -1    0    0    0    0 -0.00000000000E+00 -0.00000000000E+00 -0.74505805969E-08  0.93827000000E+00  0.93827000000E+00 0.  1.
     999902    2    1    2    0    0 -0.13504876084E-01  0.15882564534E-01 -0.13437760877E-01  0.10191265536E+01  0.10188246765E+01 0.  0.
     999903    2    3    3    0    0 -0.44391914419E-01 -0.39586995090E-01  0.11266916823E+00  0.12787247160E+00  0.10920406378E-01 0.  0.
         14    1    1    2    0    0  0.13504876084E-01 -0.15882564534E-01  0.13437760877E-01  0.24803446365E-01  0.00000000000E+00 0.  1.
     999901    1    3    3    0    0  0.30887038335E-01  0.55469559624E-01 -0.12610692911E+00  0.89125408204E+00  0.88000000000E+00 0.  1.
        -11    1    4    4    0    0 -0.91838243847E-02 -0.10600688315E-01  0.36333283486E-01  0.38949786045E-01  0.51100000000E-03 0. -1.
         11    1    4    4    0    0 -0.35208090034E-01 -0.28986306775E-01  0.76335884747E-01  0.88922685550E-01  0.51100000000E-03 0.  1.
</event>
<event>
 8    1  0.1166736E+005  0.1043930E+01  0.7957747E-01            NaN
         13   -1    0    0    0    0  0.00000000000E+00  0.00000000000E+00  0.74505805969E-08  0.10566000000E+00  0.10566000000E+00 0. -1.
     999900   -1    0    0    0    0 -0.00000000000E+00 -0.00000000000E+00 -0.74505805969E-08  0.93827000000E+00  0.93827000000E+00 0.  1.
     999902    2    1    2    0    0  0.20014224284E-01  0.11495260460E-01 -0.57153885918E-03  0.10208424093E+01  0.10205812990E+01 0.  0.
     999903    2    3    3    0    0 -0.10338982428E+00  0.26811475513E-01  0.70361447791E-01  0.12927377245E+00  0.18779348372E-01 0.  0.
         14    1    1    2    0    0 -0.20014224284E-01 -0.11495260460E-01  0.57153885918E-03  0.23087590680E-01  0.00000000000E+00 0.  1.
     999901    1    3    3    0    0  0.12340404857E+00 -0.15316215053E-01 -0.70932986651E-01  0.89156863686E+00  0.88000000000E+00 0.  1.
        -11    1    4    4    0    0 -0.24101860079E-01 -0.42838676794E-03  0.21062181967E-01  0.32014993435E-01  0.51100000000E-03 0.  1.
         11    1    4    4    0    0 -0.79287964203E-01  0.27239862281E-01  0.49299265825E-01  0.97258779020E-01  0.51100000000E-03 0. -1.
</event>
<event>
 8    1  0.1166736E+005  0.1043930E+01  0.7957747E-01            NaN
         13   -1    0    0    0    0  0.00000000000E+00  0.00000000000E+00  0.74505805969E-08  0.10566000000E+00  0.10566000000E+00 0. -1.
     999900   -1    0    0    0    0 -0.00000000000E+00 -0.00000000000E+00 -0.74505805969E-08  0.93827000000E+00  0.93827000000E+00 0.  1.
     999902    2    1    2    0    0  0.13431482413E-01  0.31035972781E-03  0.19537254273E-01  0.10202191302E+01  0.10199435613E+01 0.  0.
     999903    2    3    3    0    0  0.77994093355E-01 -0.52647172731E-01  0.92348153534E-01  0.13327253764E+00  0.19457246268E-01 0.  0.
         14    1    1    2    0    0 -0.13431482413E-01 -0.31035972781E-03 -0.19537254273E-01  0.23710869817E-01  0.00000000000E+00 0.  1.
     999901    1    3    3    0    0 -0.64562610942E-01  0.52957532459E-01 -0.72810899261E-01  0.88694659254E+00  0.88000000000E+00 0.  1.
        -11    1    4    4    0    0  0.50635961906E-01 -0.24350492150E-01  0.47277150497E-01  0.73432534930E-01  0.51100000000E-03 0.  1.
         11    1    4    4    0    0  0.27358131448E-01 -0.28296680581E-01  0.45071003037E-01  0.59840002707E-01  0.51100000000E-03 0. -1.
</event>
<event>
 8    1  0.1166736E+005  0.1043930E+01  0.7957747E-01            NaN
         13   -1    0    0    0    0  0.00000000000E+00  0.00000000000E+00  0.74505805969E-08  0.10566000000E+00  0.10566000000E+00 0.  1.
     999900   -1    0    0    0    0 -0.00000000000E+00 -0.00000000000E+00 -0.74505805969E-08  0.93827000000E+00  0.93827000000E+00 0.  1.
     999902    2    1    2    0    0  0.15250538974E-02  0.23220802543E-01 -0.72577920185E-02  0.10195536384E+01  0.10192621913E+01 0.  0.
     999903    2    3    3    0    0 -0.12123107604E-01  0.39303243122E-01 -0.12370818144E+00  0.13163156388E+00  0.18205488080E-01 0.  0.
         14    1    1    2    0    0 -0.15250538974E-02 -0.23220802543E-01  0.72577920185E-02  0.24376361606E-01  0.00000000000E+00 0.  1.
     999901    1    3    3    0    0  0.13648161501E-01 -0.16082440579E-01  0.11645038943E+00  0.88792207451E+00  0.88000000000E+00 0. -1.
        -11    1    4    4    0    0 -0.87891026080E-02  0.28430439632E-01 -0.60707765137E-01  0.67610887372E-01  0.51100000000E-03 0.  1.
         11    1    4    4    0    0 -0.33340049956E-02  0.10872803490E-01 -0.63000416307E-01  0.64020676511E-01  0.51100000000E-03 0. -1.
</event>
<event>
 8    1  0.1166736E+005  0.1043930E+01  0.7957747E-01            NaN
         13   -1    0    0    0    0  0.00000000000E+00  0.00000000000E+00  0.74505805969E-08  0.10566000000E+00  0.10566000000E+00 0. -1.
     999900   -1    0    0    0    0 -0.00000000000E+00 -0.00000000000E+00 -0.74505805969E-08  0.93827000000E+00  0.93827000000E+00 0. -1.
     999902    2    1    2    0    0 -0.18588481653E-01  0.92480165038E-02 -0.12495292289E-01  0.10196980007E+01  0.10194100367E+01 0.  0.
     999903    2    3    3    0    0  0.44153605587E-01 -0.77147917275E-01 -0.92351739539E-01  0.12965424953E+00  0.19494578681E-01 0.  0.
         14    1    1    2    0    0  0.18588481653E-01 -0.92480165038E-02  0.12495292289E-01  0.24231999274E-01  0.00000000000E+00 0. -1.
     999901    1    3    3    0    0 -0.62742087239E-01  0.86395933779E-01  0.79856447250E-01  0.89004375120E+00  0.88000000000E+00 0. -1.
        -11    1    4    4    0    0  0.21484108658E-01 -0.50725355574E-01 -0.46568798005E-01  0.72135585473E-01  0.51100000000E-03 0. -1.
         11    1    4    4    0    0  0.22669496928E-01 -0.26422561701E-01 -0.45782941535E-01  0.57518664053E-01  0.51100000000E-03 0.  1.
</event>
<event>
 8    1  0.1166736E+005  0.1043930E+01  0.7957747E-01            NaN
         13   -1    0    0    0    0  0.00000000000E+00  0.00000000000E+00  0.74505805969E-08  0.10566000000E+00  0.10566000000E+00 0.  1.
     999900   -1    0    0    0    0 -0.00000000000E+00 -0.00000000000E+00 -0.74505805969E-08  0.93827000000E+00  0.93827000000E+00 0. -1.
     999902    2    1    2    0    0 -0.21374348105E-01 -0.64324436406E-02  0.72963504251E-02  0.10204464777E+01  0.10201762290E+01 0.  0.
     999903    2    3    3    0    0 -0.12021691582E+00 -0.43293330021E-01 -0.32358599716E-01  0.13325929726E+00  0.19609743966E-01 0.  0.
         14    1    1    2    0    0  0.21374348105E-01  0.64324436406E-02 -0.72963504251E-02  0.23483522258E-01  0.00000000000E+00 0. -1.
     999901    1    3    3    0    0  0.98842567712E-01  0.36860886380E-01  0.39654950142E-01  0.88718718048E+00  0.88000000000E+00 0.  1.
        -11    1    4    4    0    0 -0.22169423215E-01 -0.75561826367E-02 -0.14018932666E-01  0.27301480103E-01  0.51100000000E-03 0. -1.
         11    1    4    4    0    0 -0.98047492602E-01 -0.35737147384E-01 -0.18339667051E-01  0.10595781716E+00  0.51100000000E-03 0.  1.
</event>
<event>
 8    1  0.1166736E+005  0.1043930E+01  0.7957747E-01            NaN
         13   -1    0    0    0    0  0.00000000000E+00  0.00000000000E+00  0.74505805969E-08  0.10566000000E+00  0.10566000000E+00 0. -1.
     999900   -1    0    0    0    0 -0.00000000000E+00 -0.00000000000E+00 -0.74505805969E-08  0.93827000000E+00  0.93827000000E+00 0.  1.
     999902    2    1    2    0    0 -0.19593719440E-01  0.90626206195E-02 -0.99848779454E-02  0.10201446532E+01  0.10198673300E+01 0.  0.
     999903    2    3    3    0    0 -0.12074007422E+00  0.49630975828E-01 -0.17997128297E-01  0.13338618966E+00  0.20653805485E-01 0.  0.
         14    1    1    2    0    0  0.19593719440E-01 -0.90626206195E-02  0.99848779454E-02  0.23785346783E-01  0.00000000000E+00 0. -1.
     999901    1    3    3    0    0  0.10114635478E+00 -0.40568355209E-01  0.80122503511E-02  0.88675846355E+00  0.88000000000E+00 0. -1.
        -11    1    4    4    0    0 -0.62549423320E-01  0.27973640980E-01 -0.19611521324E-01  0.71272910962E-01  0.51100000000E-03 0.  1.
         11    1    4    4    0    0 -0.58190650902E-01  0.21657334848E-01  0.16143930272E-02  0.62113278701E-01  0.51100000000E-03 0. -1.
</event>
<event>
 8    1  0.1166736E+005  0.1043930E+01  0.7957747E-01            NaN
         13   -1    0    0    0    0  0.00000000000E+00  0.00000000000E+00  0.74505805969E-08  0.10566000000E+00  0.10566000000E+00 0.  1.
     999900   -1    0    0    0    0 -0.00000000000E+00 -0.00000000000E+00 -0.74505805969E-08  0.93827000000E+00  0.93827000000E+00 0. -1.
     999902    2    1    2    0    0  0.15596342669E-01 -0.20232262546E-01  0.40551698363E-02  0.10180642938E+01  0.10177356590E+01 0.  0.
     999903    2    3    3    0    0 -0.72191267460E-01  0.94155233876E-01  0.36510301839E-01  0.12573896112E+00  0.20012422144E-01 0.  0.
         14    1    1    2    0    0 -0.15596342669E-01  0.20232262546E-01 -0.40551698363E-02  0.25865706152E-01  0.00000000000E+00 0.  1.
     999901    1    3    3    0    0  0.87787610129E-01 -0.11438749642E+00 -0.32455132003E-01  0.89232533273E+00  0.88000000000E+00 0. -1.
        -11    1    4    4    0    0 -0.23766918905E-01  0.46893854048E-01  0.18231715054E-01  0.55646711821E-01  0.51100000000E-03 0. -1.
         11    1    4    4    0    0 -0.48424348556E-01  0.47261379828E-01  0.18278586785E-01  0.70092249302E-01  0.51100000000E-03 0.  1.
</event>
<event>
 8    1  0.1166736E+005  0.1043930E+01  0.7957747E-01            NaN
         13   -1    0    0    0    0  0.00000000000E+00  0.00000000000E+00  0.74505805969E-08  0.10566000000E+00  0.10566000000E+00 0. -1.
     999900   -1    0    0    0    0 -0.00000000000E+00 -0.00000000000E+00 -0.74505805969E-08  0.93827000000E+00  0.93827000000E+00 0.  1.
     999902    2    1    2    0    0 -0.13030920120E-01 -0.20237744572E-01 -0.86569536128E-03  0.10198443069E+01  0.10195598509E+01 0.  0.
     999903    2    3    3    0    0 -0.37617593610E-02  0.82187332566E-01  0.96386888677E-01  0.12853354241E+00  0.21483266668E-01 0.  0.
         14    1    1    2    0    0  0.13030920120E-01  0.20237744572E-01  0.86569536128E-03  0.24085693119E-01  0.00000000000E+00 0. -1.
     999901    1    3    3    0    0 -0.92691607591E-02 -0.10242507714E+00 -0.97252584038E-01  0.89131076448E+00  0.88000000000E+00 0.  1.
        -11    1    4    4    0    0 -0.99375731349E-02  0.18340594208E-01  0.24842135514E-01  0.32442650533E-01  0.51100000000E-03 0. -1.
         11    1    4    4    0    0  0.61758137738E-02  0.63846738359E-01  0.71544753163E-01  0.96090891873E-01  0.51100000000E-03 0.  1.
</event>
<event>
 8    1  0.1166736E+005  0.1043930E+01  0.7957747E-01            NaN
         13   -1    0    0    0    0  0.00000000000E+00  0.00000000000E+00  0.74505805969E-08  0.10566000000E+00  0.10566000000E+00 0. -1.
     999900   -1    0    0    0    0 -0.00000000000E+00 -0.00000000000E+00 -0.74505805969E-08  0.93827000000E+00  0.93827000000E+00 0. -1.
     999902    2    1    2    0    0  0.17417219283E-01  0.35326964888E-02  0.16013768201E-01  0.10200076204E+01  0.10197270544E+01 0.  0.
     999903    2    3    3    0    0  0.40107149667E-02  0.79712448820E-01 -0.99563324929E-01  0.12908610118E+00  0.19498859312E-01 0.  0.
         14    1    1    2    0    0 -0.17417219283E-01 -0.35326964888E-02 -0.16013768201E-01  0.23922379565E-01  0.00000000000E+00 0.  1.
     999901    1    3    3    0    0  0.13406504316E-01 -0.76179752331E-01  0.11557709313E+00  0.89092151926E+00  0.88000000000E+00 0. -1.
        -11    1    4    4    0    0 -0.74506525797E-02  0.40058825932E-01 -0.45808356426E-01  0.61309774085E-01  0.51100000000E-03 0.  1.
         11    1    4    4    0    0  0.11461367546E-01  0.39653622889E-01 -0.53754968503E-01  0.67776327091E-01  0.51100000000E-03 0. -1.
</event>
<event>
 8    1  0.1166736E+005  0.1043930E+01  0.7957747E-01            NaN
         13   -1    0    0    0    0  0.00000000000E+00  0.00000000000E+00  0.74505805969E-08  0.10566000000E+00  0.10566000000E+00 0.  1.
     999900   -1    0    0    0    0 -0.00000000000E+00 -0.00000000000E+00 -0.74505805969E-08  0.93827000000E+00  0.93827000000E+00 0. -1.
     999902    2    1    2    0    0  0.14632477473E-01  0.87916956400E-02 -0.82998173608E-02  0.10249486861E+01  0.10247729109E+01 0.  0.
     999903    2    3    3    0    0  0.74291519439E-01  0.54621845644E-02 -0.11313675940E+00  0.13671387967E+00  0.18484946487E-01 0.  0.
         14    1    1    2    0    0 -0.14632477473E-01 -0.87916956400E-02  0.82998173608E-02  0.18981313902E-01  0.00000000000E+00 0.  1.
     999901    1    3    3    0    0 -0.59659041966E-01  0.33295110756E-02  0.10483694204E+00  0.88823480643E+00  0.88000000000E+00 0.  1.
        -11    1    4    4    0    0  0.60193614190E-01  0.90357471126E-03 -0.77645055089E-01  0.98250207823E-01  0.51100000000E-03 0. -1.
         11    1    4    4    0    0  0.14097905249E-01  0.45586098531E-02 -0.35491704310E-01  0.38463671848E-01  0.51100000000E-03 0.  1.
</event>
<event>
 8    1  0.1166736E+005  0.1043930E+01  0.7957747E-01            NaN
         13   -1    0    0    0    0  0.00000000000E+00  0.00000000000E+00  0.74505805969E-08  0.10566000000E+00  0.10566000000E+00 0. -1.
     999900   -1    0    0    0    0 -0.00000000000E+00 -0.00000000000E+00 -0.74505805969E-08  0.93827000000E+00  0.93827000000E+00 0.  1.
     999902    2    1    2    0    0  0.20291960153E-01  0.16338355096E-01  0.13071171229E-01  0.10147827701E+01  0.10143640912E+01 0.  0.
     999903    2    3    3    0    0  0.97182590957E-02 -0.82748992401E-01 -0.88710358029E-01  0.12332913401E+00  0.19967658102E-01 0.  0.
         14    1    1    2    0    0 -0.20291960153E-01 -0.16338355096E-01 -0.13071171229E-01  0.29147229910E-01  0.00000000000E+00 0.  1.
     999901    1    3    3    0    0  0.10573701058E-01  0.99087347497E-01  0.10178152926E+00  0.89145363608E+00  0.88000000000E+00 0. -1.
        -11    1    4    4    0    0 -0.20161316995E-02 -0.54605379098E-01 -0.63385206684E-01  0.83688456556E-01  0.51100000000E-03 0. -1.
         11    1    4    4    0    0  0.11734390795E-01 -0.28143613303E-01 -0.25325151345E-01  0.39640677450E-01  0.51100000000E-03 0.  1.
</event>
<event>
 8    1  0.1166736E+005  0.1043930E+01  0.7957747E-01            NaN
         13   -1    0    0    0    0  0.00000000000E+00  0.00000000000E+00  0.74505805969E-08  0.10566000000E+00  0.10566000000E+00 0.  1.
     999900   -1    0    0    0    0 -0.00000000000E+00 -0.00000000000E+00 -0.74505805969E-08  0.93827000000E+00  0.93827000000E+00 0.  1.
     999902    2    1    2    0    0  0.18082960432E-01  0.48366261479E-03  0.12842319016E-01  0.10217454886E+01  0.10215046211E+01 0.  0.
     999903    2    3    3    0    0 -0.79113720078E-01 -0.65047295779E-01  0.79919776334E-01  0.13144167166E+00  0.19990272808E-01 0.  0.
         14    1    1    2    0    0 -0.18082960432E-01 -0.48366261479E-03 -0.12842319016E-01  0.22184511381E-01  0.00000000000E+00 0. -1.
     999901    1    3    3    0    0  0.97196680510E-01  0.65530958394E-01 -0.67077457317E-01  0.89030381696E+00  0.88000000000E+00 0.  1.
        -11    1    4    4    0    0 -0.25337238936E-01 -0.14046541867E-01  0.32072686219E-01  0.43222671569E-01  0.51100000000E-03 0. -1.
         11    1    4    4    0    0 -0.53776481143E-01 -0.51000753912E-01  0.47847090115E-01  0.88219000091E-01  0.51100000000E-03 0.  1.
</event>
<event>
 8    1  0.1166736E+005  0.1043930E+01  0.7957747E-01            NaN
         13   -1    0    0    0    0  0.00000000000E+00  0.00000000000E+00  0.74505805969E-08  0.10566000000E+00  0.10566000000E+00 0.  1.
     999900   -1    0    0    0    0 -0.00000000000E+00 -0.00000000000E+00 -0.74505805969E-08  0.93827000000E+00  0.93827000000E+00 0. -1.
     999902    2    1    2    0    0  0.88316252148E-02  0.14371152195E-02 -0.22129072537E-01  0.10200603801E+01  0.10197810649E+01 0.  0.
     999903    2    3    3    0    0 -0.14231980665E-01  0.12261727372E+00 -0.38988648993E-01  0.13129674105E+00  0.21935687183E-01 0.  0.
         14    1    1    2    0    0 -0.88316252148E-02 -0.14371152195E-02  0.22129072537E-01  0.23869619927E-01  0.00000000000E+00 0.  1.
     999901    1    3    3    0    0  0.23063605880E-01 -0.12118015850E+00  0.16859576456E-01  0.88876363902E+00  0.88000000000E+00 0.  1.
        -11    1    4    4    0    0 -0.97938584607E-02  0.66942382356E-01 -0.10075679029E-01  0.68403089462E-01  0.51100000000E-03 0.  1.
         11    1    4    4    0    0 -0.44381222045E-02  0.55674891363E-01 -0.28912969964E-01  0.62893651589E-01  0.51100000000E-03 0. -1.
</event>
<event>
 8    1  0.1166736E+005  0.1043930E+01  0.7957747E-01            NaN
         13   -1    0    0    0    0  0.00000000000E+00  0.00000000000E+00  0.74505805969E-08  0.10566000000E+00  0.10566000000E+00 0.  1.
     999900   -1    0    0    0    0 -0.00000000000E+00 -0.00000000000E+00 -0.74505805969E-08  0.93827000000E+00  0.93827000000E+00 0. -1.
     999902    2    1    2    0    0 -0.21791605593E-01  0.65500685300E-02 -0.53083509637E-02  0.10205642973E+01  0.10202967847E+01 0.  0.
     999903    2    3    3    0    0  0.12009401275E+00 -0.23050117199E-01  0.32199678336E-01  0.12791960207E+00  0.19306100244E-01 0.  0.
         14    1    1    2    0    0  0.21791605593E-01 -0.65500685300E-02  0.53083509637E-02  0.23365702686E-01  0.00000000000E+00 0. -1.
     999901    1    3    3    0    0 -0.14188561834E+00  0.29600185729E-01 -0.37508029300E-01  0.89264469525E+00  0.88000000000E+00 0.  1.
        -11    1    4    4    0    0  0.72338644957E-01 -0.18330590364E-01  0.28145666875E-01  0.79757944947E-01  0.51100000000E-03 0. -1.
         11    1    4    4    0    0  0.47755367794E-01 -0.47195268345E-02  0.40540114617E-02  0.48161657121E-01  0.51100000000E-03 0.  1.
</event>
<event>
 8    1  0.1166736E+005  0.1043930E+01  0.7957747E-01            NaN
         13   -1    0    0    0    0  0.00000000000E+00  0.00000000000E+00  0.74505805969E-08  0.10566000000E+00  0.10566000000E+00 0. -1.
     999900   -1    0    0    0    0 -0.00000000000E+00 -0.00000000000E+00 -0.74505805969E-08  0.93827000000E+00  0.93827000000E+00 0.  1.
     999902    2    1    2    0    0 -0.15083230320E-01 -0.15981408939E-01 -0.76830571982E-02  0.10206504245E+01  0.10203849030E+01 0.  0.
     999903    2    3    3    0    0  0.11133334693E+00  0.12571490559E-01 -0.61873595830E-01  0.12950900273E+00  0.19775829046E-01 0.  0.
         14    1    1    2    0    0  0.15083230320E-01  0.15981408939E-01  0.76830571982E-02  0.23279575522E-01  0.00000000000E+00 0. -1.
     999901    1    3    3    0    0 -0.12641657725E+00 -0.28552899498E-01  0.54190538632E-01  0.89114142175E+00  0.88000000000E+00 0. -1.
        -11    1    4    4    0    0  0.92425474263E-01  0.54896668917E-02 -0.57013304154E-01  0.10873537928E+00  0.51100000000E-03 0. -1.
         11    1    4    4    0    0  0.18907872667E-01  0.70818236674E-02 -0.48602916761E-02  0.20773623454E-01  0.51100000000E-03 0.  1.
</event>
<event>
 8    1  0.1166736E+005  0.1043930E+01  0.7957747E-01            NaN
         13   -1    0    0    0    0  0.00000000000E+00  0.00000000000E+00  0.74505805969E-08  0.10566000000E+00  0.10566000000E+00 0. -1.
     999900   -1    0    0    0    0 -0.00000000000E+00 -0.00000000000E+00 -0.74505805969E-08  0.93827000000E+00  0.93827000000E+00 0. -1.
     999902    2    1    2    0    0  0.15275471631E-01  0.83402749825E-02  0.17011185008E-01  0.10195931835E+01  0.10193026927E+01 0.  0.
     999903    2    3    3    0    0  0.89940300391E-01 -0.84201892558E-01 -0.36391026957E-01  0.12999176398E+00  0.19857882952E-01 0.  0.
         14    1    1    2    0    0 -0.15275471631E-01 -0.83402749825E-02 -0.17011185008E-01  0.24336816466E-01  0.00000000000E+00 0.  1.
     999901    1    3    3    0    0 -0.74664828761E-01  0.92542167541E-01  0.53402211965E-01  0.88960141955E+00  0.88000000000E+00 0. -1.
        -11    1    4    4    0    0  0.57103896277E-01 -0.54018736515E-01 -0.33018289680E-01  0.85260468208E-01  0.51100000000E-03 0. -1.
         11    1    4    4    0    0  0.32836404114E-01 -0.30183156043E-01 -0.33727372776E-02  0.44731295774E-01  0.51100000000E-03 0.  1.
</event>
<event>
 8    1  0.1166736E+005  0.1043930E+01  0.7957747E-01            NaN
         13   -1    0    0    0    0  0.00000000000E+00  0.00000000000E+00  0.74505805969E-08  0.10566000000E+00  0.10566000000E+00 0.  1.
     999900   -1    0    0    0    0 -0.00000000000E+00 -0.00000000000E+00 -0.74505805969E-08  0.93827000000E+00  0.93827000000E+00 0.  1.
     999902    2    1    2    0    0  0.11079537954E-01 -0.10814567192E-01  0.16095033580E-02  0.10283639624E+01  0.10282461464E+01 0.  0.
     999903    2    3    3    0    0 -0.37010615333E-01 -0.11294011150E+00  0.68429877078E-01  0.13864083021E+00  0.20331681974E-01 0.  0.
         14    1    1    2    0    0 -0.11079537954E-01  0.10814567192E-01 -0.16095033580E-02  0.15566037578E-01  0.00000000000E+00 0. -1.
     999901    1    3    3    0    0  0.48090153287E-01  0.10212554431E+00 -0.66820373720E-01  0.88972313221E+00  0.88000000000E+00 0.  1.
        -11    1    4    4    0    0 -0.18658256262E-01 -0.69001126525E-01  0.51497733839E-01  0.88099737230E-01  0.51100000000E-03 0.  1.
         11    1    4    4    0    0 -0.18352359071E-01 -0.43938984976E-01  0.16932143239E-01  0.50541092982E-01  0.51100000000E-03 0. -1.
</event>
<event>
 8    1  0.1166736E+005  0.1043930E+01  0.7957747E-01            NaN
         13   -1    0    0    0    0  0.00000000000E+00  0.00000000000E+00  0.74505805969E-08  0.10566000000E+00  0.10566000000E+00 0.  1.
     999900   -1    0    0    0    0 -0.00000000000E+00 -0.00000000000E+00 -0.74505805969E-08  0.93827000000E+00  0.93827000000E+00 0.  1.
     999902    2    1    2    0    0 -0.17308349664E-01 -0.13650739506E-01  0.11021154303E-01  0.10192847672E+01  0.10189867758E+01 0.  0.
     999903    2    3    3    0    0 -0.32042201229E-01  0.41094755747E-01  0.11839394602E+00  0.13094751592E+00  0.20362805825E-01 0.  0.
         14    1    1    2    0    0  0.17308349664E-01  0.13650739506E-01 -0.11021154303E-01  0.24645232791E-01  0.00000000000E+00 0. -1.
     999901    1    3    3    0    0  0.14733851565E-01 -0.54745495253E-01 -0.10737279172E+00  0.88833725129E+00  0.88000000000E+00 0.  1.
        -11    1    4    4    0    0 -0.94069085005E-02  0.23731275666E-01  0.39314313398E-01  0.46877923708E-01  0.51100000000E-03 0.  1.
         11    1    4    4    0    0 -0.22635292728E-01  0.17363480082E-01  0.79079632623E-01  0.84069592209E-01  0.51100000000E-03 0. -1.
</event>
<event>
 8    1  0.1166736E+005  0.1043930E+01  0.7957747E-01            NaN
         13   -1    0    0    0    0  0.00000000000E+00  0.00000000000E+00  0.74505805969E-08  0.10566000000E+00  0.10566000000E+00 0. -1.
     999900   -1    0    0    0    0 -0.00000000000E+00 -0.00000000000E+00 -0.74505805969E-08  0.93827000000E+00  0.93827000000E+00 0.  1.
     999902    2    1    2    0    0 -0.21701168538E-01 -0.15821449105E-02  0.99824211949E-02  0.10199906468E+01  0.10197096778E+01 0.  0.
     999903    2    3    3    0    0 -0.48349873810E-01 -0.37620372839E-01  0.11589584426E+00  0.13250737341E+00  0.19322384465E-01 0.  0.
         14    1    1    2    0    0  0.21701168538E-01  0.15821449105E-02 -0.99824211949E-02  0.23939353194E-01  0.00000000000E+00 0.  1.
     999901    1    3    3    0    0  0.26648705272E-01  0.36038227929E-01 -0.10591342307E+00  0.88748327339E+00  0.88000000000E+00 0.  1.
        -11    1    4    4    0    0 -0.12292062450E-01 -0.41906406639E-02  0.12587000520E-01  0.18092815467E-01  0.51100000000E-03 0.  1.
         11    1    4    4    0    0 -0.36057811360E-01 -0.33429732176E-01  0.10330884374E+00  0.11441455795E+00  0.51100000000E-03 0. -1.
</event>
<event>
 8    1  0.1166736E+005  0.1043930E+01  0.7957747E-01            NaN
         13   -1    0    0    0    0  0.00000000000E+00  0.00000000000E+00  0.74505805969E-08  0.10566000000E+00  0.10566000000E+00 0. -1.
     999900   -1    0    0    0    0 -0.00000000000E+00 -0.00000000000E+00 -0.74505805969E-08  0.93827000000E+00  0.93827000000E+00 0.  1.
     999902    2    1    2    0    0 -0.16971616959E-01  0.11679791067E-02 -0.16355644666E-01  0.10203311214E+01  0.10200581799E+01 0.  0.
     999903    2    3    3    0    0 -0.11545477731E+00  0.61201488332E-01 -0.13048267663E-01  0.13279864662E+00  0.19743238771E-01 0.  0.
         14    1    1    2    0    0  0.16971616959E-01 -0.11679791067E-02  0.16355644666E-01  0.23598878571E-01  0.00000000000E+00 0. -1.
     999901    1    3    3    0    0  0.98483160349E-01 -0.60033509225E-01 -0.33073770025E-02  0.88753247481E+00  0.88000000000E+00 0.  1.
        -11    1    4    4    0    0 -0.74828832067E-01  0.28799453341E-01 -0.72318405292E-02  0.80506665933E-01  0.51100000000E-03 0.  1.
         11    1    4    4    0    0 -0.40625945241E-01  0.32402034991E-01 -0.58164271340E-02  0.52291980684E-01  0.51100000000E-03 0. -1.
</event>
<event>
 8    1  0.1166736E+005  0.1043930E+01  0.7957747E-01            NaN
         13   -1    0    0    0    0  0.00000000000E+00  0.00000000000E+00  0.74505805969E-08  0.10566000000E+00  0.10566000000E+00 0.  1.
     999900   -1    0    0    0    0 -0.00000000000E+00 -0.00000000000E+00 -0.74505805969E-08  0.93827000000E+00  0.93827000000E+00 0.  1.
     999902    2    1    2    0    0 -0.13770081052E-01  0.70909648682E-02 -0.14860371070E-01  0.10224654352E+01  0.10222401081E+01 0.  0.
     999903    2    3    3    0    0  0.12127991121E+00 -0.41762948731E-01 -0.16144018970E-01  0.13082265186E+00  0.20024388638E-01 0.  0.
         14    1    1    2    0    0  0.13770081052E-01 -0.70909648682E-02  0.14860371070E-01  0.21464564828E-01  0.00000000000E+00 0.  1.
     999901    1    3    3    0    0 -0.13504999226E+00  0.48853913599E-01  0.12836478997E-02  0.89164278331E+00  0.88000000000E+00 0.  1.
        -11    1    4    4    0    0  0.17521317654E-01 -0.12780664895E-01 -0.65705136072E-02  0.22666599603E-01  0.51100000000E-03 0. -1.
         11    1    4    4    0    0  0.10375859356E+00 -0.28982283836E-01 -0.95735053624E-02  0.10815605225E+00  0.51100000000E-03 0.  1.
</event>
<event>
 8    1  0.1166736E+005  0.1043930E+01  0.7957747E-01            NaN
         13   -1    0    0    0    0  0.00000000000E+00  0.00000000000E+00  0.74505805969E-08  0.10566000000E+00  0.10566000000E+00 0. -1.
     999900   -1    0    0    0    0 -0.00000000000E+00 -0.00000000000E+00 -0.74505805969E-08  0.93827000000E+00  0.93827000000E+00 0. -1.
     999902    2    1    2    0    0  0.71799314152E-02  0.23678117543E-01  0.51928888934E-04  0.10191871755E+01  0.10188867903E+01 0.  0.
     999903    2    3    3    0    0 -0.14324101118E-01  0.86724842284E-01  0.95712193337E-01  0.13150018166E+00  0.20126988871E-01 0.  0.
         14    1    1    2    0    0 -0.71799314152E-02 -0.23678117543E-01 -0.51928888934E-04  0.24742824457E-01  0.00000000000E+00 0. -1.
     999901    1    3    3    0    0  0.21504032533E-01 -0.63046724741E-01 -0.95660264448E-01  0.88768699388E+00  0.88000000000E+00 0. -1.
        -11    1    4    4    0    0  0.12570877559E-02  0.50368387069E-01  0.48927844417E-01  0.70233537330E-01  0.51100000000E-03 0.  1.
         11    1    4    4    0    0 -0.15581188873E-01  0.36356455215E-01  0.46784348920E-01  0.61266644329E-01  0.51100000000E-03 0. -1.
</event>
<event>
 8    1  0.1166736E+005  0.1043930E+01  0.7957747E-01            NaN
         13   -1    0    0    0    0  0.00000000000E+00  0.00000000000E+00  0.74505805969E-08  0.10566000000E+00  0.10566000000E+00 0. -1.
     999900   -1    0    0    0    0 -0.00000000000E+00 -0.00000000000E+00 -0.74505805969E-08  0.93827000000E+00  0.93827000000E+00 0. -1.
     999902    2    1    2    0    0  0.12840520151E-01  0.11151117011E-01  0.11716110032E-01  0.10232782785E+01  0.10230698615E+01 0.  0.
     999903    2    3    3    0    0 -0.62625545114E-01  0.58688647392E-01 -0.98192576343E-01  0.13196752281E+00  0.20182388198E-01 0.  0.
         14    1    1    2    0    0 -0.12840520151E-01 -0.11151117011E-01 -0.11716110032E-01  0.20651721541E-01  0.00000000000E+00 0.  1.
     999901    1    3    3    0    0  0.75466065264E-01 -0.47537530381E-01  0.10990868637E+00  0.89131075565E+00  0.88000000000E+00 0.  1.
        -11    1    4    4    0    0 -0.55756649805E-02  0.88659582737E-02 -0.43047589594E-02  0.11335136822E-01  0.51100000000E-03 0. -1.
         11    1    4    4    0    0 -0.57049880133E-01  0.49822689118E-01 -0.93887817383E-01  0.12063238598E+00  0.51100000000E-03 0.  1.
</event>
<event>
 8    1  0.1166736E+005  0.1043930E+01  0.7957747E-01            NaN
         13   -1    0    0    0    0  0.00000000000E+00  0.00000000000E+00  0.74505805969E-08  0.10566000000E+00  0.10566000000E+00 0.  1.
     999900   -1    0    0    0    0 -0.00000000000E+00 -0.00000000000E+00 -0.74505805969E-08  0.93827000000E+00  0.93827000000E+00 0. -1.
     999902    2    1    2    0    0  0.94851445004E-05  0.24486202196E-01 -0.91217197186E-03  0.10194268115E+01  0.10191322867E+01 0.  0.
     999903    2    3    3    0    0  0.96731927344E-01  0.50685294942E-01  0.69388390858E-01  0.13095408126E+00  0.20202913679E-01 0.  0.
         14    1    1    2    0    0 -0.94851445004E-05 -0.24486202196E-01  0.91217197186E-03  0.24503188480E-01  0.00000000000E+00 0.  1.
     999901    1    3    3    0    0 -0.96722442200E-01 -0.26199092746E-01 -0.70300562829E-01  0.88847273026E+00  0.88000000000E+00 0.  1.
        -11    1    4    4    0    0  0.21458894905E-01  0.14941608188E-01  0.26509433593E-01  0.37239052300E-01  0.51100000000E-03 0. -1.
         11    1    4    4    0    0  0.75273032440E-01  0.35743686754E-01  0.42878957264E-01  0.93715028958E-01  0.51100000000E-03 0.  1.
</event>
<event>
 8    1  0.1166736E+005  0.1043930E+01  0.7957747E-01            NaN
         13   -1    0    0    0    0  0.00000000000E+00  0.00000000000E+00  0.74505805969E-08  0.10566000000E+00  0.10566000000E+00 0.  1.
     999900   -1    0    0    0    0 -0.00000000000E+00 -0.00000000000E+00 -0.74505805969E-08  0.93827000000E+00  0.93827000000E+00 0.  1.
     999902    2    1    2    0    0  0.13848561830E-01 -0.61828608450E-02  0.17999130873E-01  0.10203932384E+01  0.10201217486E+01 0.  0.
     999903    2    3    3    0    0  0.40783290099E-01  0.79288334715E-01 -0.91441221794E-01  0.12909755480E+00  0.18835202149E-01 0.  0.
         14    1    1    2    0    0 -0.13848561830E-01  0.61828608450E-02 -0.17999130873E-01  0.23536761570E-01  0.00000000000E+00 0. -1.
     999901    1    3    3    0    0 -0.26934728269E-01 -0.85471195560E-01  0.10944035267E+00  0.89129568363E+00  0.88000000000E+00 0.  1.
        -11    1    4    4    0    0  0.16571242630E-01  0.17185219371E-01 -0.17905010975E-01  0.29846078237E-01  0.51100000000E-03 0.  1.
         11    1    4    4    0    0  0.24212047470E-01  0.62103115344E-01 -0.73536210820E-01  0.99251476568E-01  0.51100000000E-03 0. -1.
</event>
<event>
 8    1  0.1166736E+005  0.1043930E+01  0.7957747E-01            NaN
         13   -1    0    0    0    0  0.00000000000E+00  0.00000000000E+00  0.74505805969E-08  0.10566000000E+00  0.10566000000E+00 0. -1.
     999900   -1    0    0    0    0 -0.00000000000E+00 -0.00000000000E+00 -0.74505805969E-08  0.93827000000E+00  0.93827000000E+00 0. -1.
     999902    2    1    2    0    0 -0.24659087467E-02 -0.21075497586E-01 -0.10812004018E-01  0.10201149473E+01  0.10198369227E+01 0.  0.
     999903    2    3    3    0    0  0.42567765259E-01 -0.12308513478E+00 -0.17995382865E-01  0.13304922323E+00  0.20403356465E-01 0.  0.
         14    1    1    2    0    0  0.24659087467E-02  0.21075497586E-01  0.10812004018E-01  0.23815052705E-01  0.00000000000E+00 0. -1.
     999901    1    3    3    0    0 -0.45033674006E-01  0.10200963720E+00  0.71833788468E-02  0.88706572406E+00  0.88000000000E+00 0.  1.
        -11    1    4    4    0    0  0.14961399676E-01 -0.64714107900E-01 -0.16637173040E-02  0.66443873440E-01  0.51100000000E-03 0. -1.
         11    1    4    4    0    0  0.27606365583E-01 -0.58371026882E-01 -0.16331665561E-01  0.66605349792E-01  0.51100000000E-03 0.  1.
</event>
<event>
 8    1  0.1166736E+005  0.1043930E+01  0.7957747E-01            NaN
         13   -1    0    0    0    0  0.00000000000E+00  0.00000000000E+00  0.74505805969E-08  0.10566000000E+00  0.10566000000E+00 0. -1.
     999900   -1    0    0    0    0 -0.00000000000E+00 -0.00000000000E+00 -0.74505805969E-08  0.93827000000E+00  0.93827000000E+00 0. -1.
     999902    2    1    2    0    0  0.21185800355E-01 -0.93920825739E-02  0.72955159885E-02  0.10196344468E+01  0.10193449520E+01 0.  0.
     999903    2    3    3    0    0 -0.92861625865E-01 -0.69581858195E-02  0.86383154802E-01  0.12875421136E+00  0.21068925030E-01 0.  0.
         14    1    1    2    0    0 -0.21185800355E-01  0.93920825739E-02 -0.72955159885E-02  0.24295553200E-01  0.00000000000E+00 0.  1.
     999901    1    3    3    0    0  0.11404742622E+00 -0.24338967544E-02 -0.79087638813E-01  0.89088023544E+00  0.88000000000E+00 0. -1.
        -11    1    4    4    0    0 -0.49235471598E-01 -0.12427910173E-01  0.38364305761E-01  0.63644840265E-01  0.51100000000E-03 0. -1.
         11    1    4    4    0    0 -0.43626154266E-01  0.54697243532E-02  0.48018849041E-01  0.65109371098E-01  0.51100000000E-03 0.  1.
</event>
<event>
 8    1  0.1166736E+005  0.1043930E+01  0.7957747E-01            NaN
         13   -1    0    0    0    0  0.00000000000E+00  0.00000000000E+00  0.74505805969E-08  0.10566000000E+00  0.10566000000E+00 0. -1.
     999900   -1    0    0    0    0 -0.00000000000E+00 -0.00000000000E+00 -0.74505805969E-08  0.93827000000E+00  0.93827000000E+00 0.  1.
     999902    2    1    2    0    0 -0.20295288095E-01  0.10749289241E-01  0.32196169678E-03  0.10209615521E+01  0.10207031602E+01 0.  0.
     999903    2    3    3    0    0  0.47295697621E-01 -0.10233143383E+00 -0.59667047277E-01  0.12913507099E+00  0.20176834865E-01 0.  0.
         14    1    1    2    0    0  0.20295288095E-01 -0.10749289241E-01 -0.32196169678E-03  0.22968447866E-01  0.00000000000E+00 0.  1.
     999901    1    3    3    0    0 -0.67590985715E-01  0.11308072307E+00  0.59989008974E-01  0.89182648115E+00  0.88000000000E+00 0.  1.
        -11    1    4    4    0    0  0.19669248253E-01 -0.42657143631E-01 -0.13809907753E-01  0.48964128735E-01  0.51100000000E-03 0. -1.
         11    1    4    4    0    0  0.27626449368E-01 -0.59674290196E-01 -0.45857139525E-01  0.80170942251E-01  0.51100000000E-03 0.  1.
</event>
<event>
 8    1  0.1166736E+005  0.1043930E+01  0.7957747E-01            NaN
         13   -1    0    0    0    0  0.00000000000E+00  0.00000000000E+00  0.74505805969E-08  0.10566000000E+00  0.10566000000E+00 0.  1.
     999900   -1    0    0    0    0 -0.00000000000E+00 -0.00000000000E+00 -0.74505805969E-08  0.93827000000E+00  0.93827000000E+00 0.  1.
     999902    2    1    2    0    0  0.91451585373E-02 -0.43866559196E-02 -0.20362554089E-01  0.10211811476E+01  0.10209277281E+01 0.  0.
     999903    2    3    3    0    0 -0.52018797258E-01  0.97363711576E-01  0.64075158853E-01  0.12920362878E+00  0.20057520003E-01 0.  0.
         14    1    1    2    0    0 -0.91451585373E-02  0.43866559196E-02  0.20362554089E-01  0.22748852363E-01  0.00000000000E+00 0.  1.
     999901    1    3    3    0    0  0.61163955795E-01 -0.10175036750E+00 -0.84437712942E-01  0.89197751885E+00  0.88000000000E+00 0.  1.
        -11    1    4    4    0    0 -0.81064066511E-02  0.40799596115E-02  0.49563504435E-02  0.10353087942E-01  0.51100000000E-03 0.  1.
         11    1    4    4    0    0 -0.43912390607E-01  0.93283751964E-01  0.59118808409E-01  0.11885054084E+00  0.51100000000E-03 0. -1.
</event>
<event>
 8    1  0.1166736E+005  0.1043930E+01  0.7957747E-01            NaN
         13   -1    0    0    0    0  0.00000000000E+00  0.00000000000E+00  0.74505805969E-08  0.10566000000E+00  0.10566000000E+00 0.  1.
     999900   -1    0    0    0    0 -0.00000000000E+00 -0.00000000000E+00 -0.74505805969E-08  0.93827000000E+00  0.93827000000E+00 0. -1.
     999902    2    1    2    0    0  0.27643472614E-01 -0.15834492448E-02 -0.23456972720E-01  0.10076409044E+01  0.10069872362E+01 0.  0.
     999903    2    3    3    0    0 -0.84690574972E-01  0.31091125535E-02  0.75275163815E-01  0.11501052560E+00  0.19465627191E-01 0.  0.
         14    1    1    2    0    0 -0.27643472614E-01  0.15834492448E-02  0.23456972720E-01  0.36289095591E-01  0.00000000000E+00 0.  1.
     999901    1    3    3    0    0  0.11233404759E+00 -0.46925617982E-02 -0.98732136534E-01  0.89263037881E+00  0.88000000000E+00 0. -1.
        -11    1    4    4    0    0 -0.81303781603E-01  0.10528719032E-03  0.74713209300E-01  0.11042029140E+00  0.51100000000E-03 0.  1.
         11    1    4    4    0    0 -0.33867933691E-02  0.30038253632E-02  0.56195451495E-03  0.45902342004E-02  0.51100000000E-03 0. -1.
</event>
<event>
 8    1  0.1166736E+005  0.1043930E+01  0.7957747E-01            NaN
         13   -1    0    0    0    0  0.00000000000E+00  0.00000000000E+00  0.74505805969E-08  0.10566000000E+00  0.10566000000E+00 0.  1.
     999900   -1    0    0    0    0 -0.00000000000E+00 -0.00000000000E+00 -0.74505805969E-08  0.93827000000E+00  0.93827000000E+00 0.  1.
     999902    2    1    2    0    0 -0.16441059100E-01 -0.19571589834E-02 -0.16608038655E-01  0.10204786494E+01  0.10202091492E+01 0.  0.
     999903    2    3    3    0    0 -0.92548979203E-01 -0.90771560941E-01 -0.19936753811E-01  0.13273347550E+00  0.20393909328E-01 0.  0.
         14    1    1    2    0    0  0.16441059100E-01  0.19571589834E-02  0.16608038655E-01  0.23451350571E-01  0.00000000000E+00 0.  1.
     999901    1    3    3    0    0  0.76107920102E-01  0.88814401957E-01  0.33287151559E-02  0.88774517393E+00  0.88000000000E+00 0.  1.
        -11    1    4    4    0    0 -0.15040927556E-01 -0.26647086756E-01 -0.34996210152E-02  0.30802681744E-01  0.51100000000E-03 0. -1.
         11    1    4    4    0    0 -0.77508051647E-01 -0.64124474184E-01 -0.16437132795E-01  0.10193079375E+00  0.51100000000E-03 0.  1.
</event>
<event>
 8    1  0.1166736E+005  0.1043930E+01  0.7957747E-01            NaN
         13   -1    0    0    0    0  0.00000000000E+00  0.00000000000E+00  0.74505805969E-08  0.10566000000E+00  0.10566000000E+00 0. -1.
     999900   -1    0    0    0    0 -0.00000000000E+00 -0.00000000000E+00 -0.74505805969E-08  0.93827000000E+00  0.93827000000E+00 0.  1.
     999902    2    1    2    0    0 -0.11495996702E-01 -0.14161028360E-01  0.15474661998E-01  0.10200101792E+01  0.10197296739E+01 0.  0.
     999903    2    3    3    0    0  0.41914499439E-01 -0.58273209240E-01  0.10933171566E+00  0.13231219443E+00  0.20012510275E-01 0.  0.
         14    1    1    2    0    0  0.11495996702E-01  0.14161028360E-01 -0.15474661998E-01  0.23919820825E-01  0.00000000000E+00 0.  1.
     999901    1    3    3    0    0 -0.53410496141E-01  0.44112180880E-01 -0.93857053661E-01  0.88769798475E+00  0.88000000000E+00 0.  1.
        -11    1    4    4    0    0  0.30954353386E-02 -0.18993031041E-01  0.26370078280E-01  0.32649029044E-01  0.51100000000E-03 0.  1.
         11    1    4    4    0    0  0.38819064100E-01 -0.39280178199E-01  0.82961637379E-01  0.99663165385E-01  0.51100000000E-03 0. -1.
</event>
<event>
 8    1  0.1166736E+005  0.1043930E+01  0.7957747E-01            NaN
         13   -1    0    0    0    0  0.00000000000E+00  0.00000000000E+00  0.74505805969E-08  0.10566000000E+00  0.10566000000E+00 0.  1.
     999900   -1    0    0    0    0 -0.00000000000E+00 -0.00000000000E+00 -0.74505805969E-08  0.93827000000E+00  0.93827000000E+00 0. -1.
     999902    2    1    2    0    0  0.22942488819E-01 -0.53756763605E-03  0.43230356030E-02  0.10205775824E+01  0.10203103774E+01 0.  0.
     999903    2    3    3    0    0 -0.70170483058E-01  0.77241873379E-01 -0.72749798769E-01  0.12891627404E+00  0.20896621649E-01 0.  0.
         14    1    1    2    0    0 -0.22942488819E-01  0.53756763605E-03 -0.43230356030E-02  0.23352417626E-01  0.00000000000E+00 0. -1.
     999901    1    3    3    0    0  0.93112971877E-01 -0.77779441016E-01  0.77072834373E-01  0.89166130833E+00  0.88000000000E+00 0.  1.
        -11    1    4    4    0    0 -0.39024711946E-01  0.39231286970E-01 -0.50702188218E-01  0.75053281280E-01  0.51100000000E-03 0.  1.
         11    1    4    4    0    0 -0.31145771112E-01  0.38010586410E-01 -0.22047610552E-01  0.53862992763E-01  0.51100000000E-03 0. -1.
</event>
<event>
 8    1  0.1302199E+005  0.1043930E+01  0.7957747E-01            NaN
         13   -1    0    0    0    0  0.00000000000E+00  0.00000000000E+00  0.74505805969E-08  0.10566000000E+00  0.10566000000E+00 0.  1.
     999900   -1    0    0    0    0 -0.00000000000E+00 -0.00000000000E+00 -0.74505805969E-08  0.93827000000E+00  0.93827000000E+00 0.  1.
     999902    2    1    2    0    0 -0.20621289800E-01  0.12567185798E-01  0.39057971366E-02  0.10194672323E+01  0.10191736902E+01 0.  0.
     999903    2    3    3    0    0  0.79060185016E-01  0.13125767114E-02  0.99442528090E-01  0.12863036194E+00  0.20117601924E-01 0.  0.
         14    1    1    2    0    0  0.20621289800E-01 -0.12567185798E-01 -0.39057971366E-02  0.24462767693E-01  0.00000000000E+00 0. -1.
     999901    1    3    3    0    0 -0.99681474816E-01  0.11254609087E-01 -0.95536730953E-01  0.89083687037E+00  0.88000000000E+00 0.  1.
        -11    1    4    4    0    0  0.32724933095E-01  0.10414620870E-01  0.40447923309E-01  0.53062992706E-01  0.51100000000E-03 0.  1.
         11    1    4    4    0    0  0.46335251921E-01 -0.91020441586E-02  0.58994604781E-01  0.75567369233E-01  0.51100000000E-03 0. -1.
</event>
<event>
 8    1  0.1166736E+005  0.1043930E+01  0.7957747E-01            NaN
         13   -1    0    0    0    0  0.00000000000E+00  0.00000000000E+00  0.74505805969E-08  0.10566000000E+00  0.10566000000E+00 0. -1.
     999900   -1    0    0    0    0 -0.00000000000E+00 -0.00000000000E+00 -0.74505805969E-08  0.93827000000E+00  0.93827000000E+00 0. -1.
     999902    2    1    2    0    0 -0.20821473604E-01 -0.10434462796E-01 -0.38632871103E-02  0.10203220191E+01  0.10200488644E+01 0.  0.
     999903    2    3    3    0    0 -0.79434644378E-01  0.82795964677E-01 -0.61188115073E-01  0.13160746854E+00  0.20285607110E-01 0.  0.
         14    1    1    2    0    0  0.20821473604E-01  0.10434462796E-01  0.38632871103E-02  0.23607980943E-01  0.00000000000E+00 0.  1.
     999901    1    3    3    0    0  0.58613170774E-01 -0.93230427473E-01  0.57324827963E-01  0.88871455051E+00  0.88000000000E+00 0.  1.
        -11    1    4    4    0    0 -0.39999523015E-01  0.51383513505E-01 -0.25973438578E-01  0.70107830762E-01  0.51100000000E-03 0.  1.
         11    1    4    4    0    0 -0.39435121363E-01  0.31412451172E-01 -0.35214676496E-01  0.61499637781E-01  0.51100000000E-03 0. -1.
</event>
<event>
 8    1  0.1166736E+005  0.1043930E+01  0.7957747E-01            NaN
         13   -1    0    0    0    0  0.00000000000E+00  0.00000000000E+00  0.74505805969E-08  0.10566000000E+00  0.10566000000E+00 0.  1.
     999900   -1    0    0    0    0 -0.00000000000E+00 -0.00000000000E+00 -0.74505805969E-08  0.93827000000E+00  0.93827000000E+00 0. -1.
     999902    2    1    2    0    0 -0.22618660046E-02 -0.12865504303E-02 -0.27122210592E-01  0.10166832468E+01  0.10163180796E+01 0.  0.
     999903    2    3    3    0    0 -0.10936873876E-01 -0.12333685008E+00  0.19389759542E-01  0.12700077834E+00  0.20533901910E-01 0.  0.
         14    1    1    2    0    0  0.22618660046E-02  0.12865504303E-02  0.27122210592E-01  0.27246753150E-01  0.00000000000E+00 0.  1.
     999901    1    3    3    0    0  0.86750078711E-02  0.12205029964E+00 -0.46511970134E-01  0.88968246851E+00  0.88000000000E+00 0. -1.
        -11    1    4    4    0    0  0.59349579848E-02 -0.30950854801E-01  0.68161073135E-02  0.32247473995E-01  0.51100000000E-03 0. -1.
         11    1    4    4    0    0 -0.16871831860E-01 -0.92385995274E-01  0.12573652229E-01  0.94753304346E-01  0.51100000000E-03 0.  1.
</event>
<event>
 8    1  0.1166736E+005  0.1043930E+01  0.7957747E-01            NaN
         13   -1    0    0    0    0  0.00000000000E+00  0.00000000000E+00  0.74505805969E-08  0.10566000000E+00  0.10566000000E+00 0.  1.
     999900   -1    0    0    0    0 -0.00000000000E+00 -0.00000000000E+00 -0.74505805969E-08  0.93827000000E+00  0.93827000000E+00 0.  1.
     999902    2    1    2    0    0 -0.39712024750E-02  0.14086981240E-01  0.18167947400E-01  0.10206000235E+01  0.10203333378E+01 0.  0.
     999903    2    3    3    0    0  0.36217747745E-01  0.82906036300E-01 -0.91449999993E-01  0.13022521006E+00  0.20257510471E-01 0.  0.
         14    1    1    2    0    0  0.39712024750E-02 -0.14086981240E-01 -0.18167947400E-01  0.23329976474E-01  0.00000000000E+00 0. -1.
     999901    1    3    3    0    0 -0.40188950220E-01 -0.68819055060E-01  0.10961794739E+00  0.89037481346E+00  0.88000000000E+00 0. -1.
        -11    1    4    4    0    0  0.76127037919E-02  0.42571779952E-01 -0.43678821105E-01  0.61468774523E-01  0.51100000000E-03 0.  1.
         11    1    4    4    0    0  0.28605043953E-01  0.40334256348E-01 -0.47771178889E-01  0.68756435540E-01  0.51100000000E-03 0. -1.
</event>
<event>
 8    1  0.1166736E+005  0.1043930E+01  0.7957747E-01            NaN
         13   -1    0    0    0    0  0.00000000000E+00  0.00000000000E+00  0.74505805969E-08  0.10566000000E+00  0.10566000000E+00 0. -1.
     999900   -1    0    0    0    0 -0.00000000000E+00 -0.00000000000E+00 -0.74505805969E-08  0.93827000000E+00  0.93827000000E+00 0.  1.
     999902    2    1    2    0    0 -0.11389770798E-01 -0.18434736738E-01  0.10126032088E-01  0.10200113269E+01  0.10197308488E+01 0.  0.
     999903    2    3    3    0    0  0.49699482896E-01  0.84368428755E-01 -0.79763153561E-01  0.12738573156E+00  0.16640119209E-01 0.  0.
         14    1    1    2    0    0  0.11389770798E-01  0.18434736738E-01 -0.10126032088E-01  0.23918673109E-01  0.00000000000E+00 0. -1.
     999901    1    3    3    0    0 -0.61089253693E-01 -0.10280316549E+00  0.89889185649E-01  0.89262559534E+00  0.88000000000E+00 0. -1.
        -11    1    4    4    0    0  0.16676234768E-01  0.18021709904E-01 -0.26423895552E-01  0.36074398277E-01  0.51100000000E-03 0.  1.
         11    1    4    4    0    0  0.33023248127E-01  0.66346718851E-01 -0.53339258009E-01  0.91311333278E-01  0.51100000000E-03 0. -1.
</event>
<event>
 8    1  0.1166736E+005  0.1043930E+01  0.7957747E-01            NaN
         13   -1    0    0    0    0  0.00000000000E+00  0.00000000000E+00  0.74505805969E-08  0.10566000000E+00  0.10566000000E+00 0. -1.
     999900   -1    0    0    0    0 -0.00000000000E+00 -0.00000000000E+00 -0.74505805969E-08  0.93827000000E+00  0.93827000000E+00 0. -1.
     999902    2    1    2    0    0 -0.16420392308E-01 -0.16082298425E-01  0.24763090782E-02  0.10208128697E+01  0.10205510831E+01 0.  0.
     999903    2    3    3    0    0 -0.14782194886E-01  0.12844463891E-02  0.12941439164E+00  0.13153363105E+00  0.18244129062E-01 0.  0.
         14    1    1    2    0    0  0.16420392308E-01  0.16082298425E-01 -0.24763090782E-02  0.23117130290E-01  0.00000000000E+00 0. -1.
     999901    1    3    3    0    0 -0.16381974224E-02 -0.17366744814E-01 -0.12693808256E+00  0.88927923866E+00  0.88000000000E+00 0. -1.
        -11    1    4    4    0    0 -0.15596777866E-01  0.42963859416E-02  0.63064582109E-01  0.65108532847E-01  0.51100000000E-03 0. -1.
         11    1    4    4    0    0  0.81458298036E-03 -0.30119395525E-02  0.66349809528E-01  0.66425098198E-01  0.51100000000E-03 0.  1.
</event>
<event>
 7    1  0.1166736E+005  0.1043930E+01  0.7957747E-01            NaN
         13   -1    0    0    0    0  0.00000000000E+00  0.00000000000E+00  0.74505805969E-08  0.10566000000E+00  0.10566000000E+00 0. -1.
     999900   -1    0    0    0    0 -0.00000000000E+00 -0.00000000000E+00 -0.74505805969E-08  0.93827000000E+00  0.93827000000E+00 0.  1.
     999903    2    1    2    0    0 -0.68714264459E-01 -0.82340369958E-01  0.16266730089E-01  0.11032804565E+00  0.20151538032E-01 0.  0.
         14    1    1    2    0    0  0.14719397377E-01  0.15631638652E-01 -0.44035285625E-01  0.48990970252E-01  0.00000000000E+00 0.  1.
     999901    1    1    2    0    0  0.53994867082E-01  0.66708731306E-01  0.27768555536E-01  0.88461098409E+00  0.88000000000E+00 0. -1.
        -11    1    3    3    0    0 -0.60048135443E-01 -0.66462082881E-01  0.20169857544E-01  0.91815419758E-01  0.51100000000E-03 0. -1.
         11    1    3    3    0    0 -0.86661290168E-02 -0.15878287077E-01 -0.39031274550E-02  0.18512625896E-01  0.51100000000E-03 0.  1.
</event>
<event>
 8    1  0.1166736E+005  0.1043930E+01  0.7957747E-01            NaN
         13   -1    0    0    0    0  0.00000000000E+00  0.00000000000E+00  0.74505805969E-08  0.10566000000E+00  0.10566000000E+00 0. -1.
     999900   -1    0    0    0    0 -0.00000000000E+00 -0.00000000000E+00 -0.74505805969E-08  0.93827000000E+00  0.93827000000E+00 0. -1.
     999902    2    1    2    0    0 -0.10698172224E-01  0.21088709839E-01 -0.52734414238E-02  0.10197020460E+01  0.10194141792E+01 0.  0.
     999903    2    3    3    0    0  0.12642844671E+00 -0.10851600541E-01 -0.19023178322E-02  0.12850327044E+00  0.20188172956E-01 0.  0.
         14    1    1    2    0    0  0.10698172224E-01 -0.21088709839E-01  0.52734414238E-02  0.24227954022E-01  0.00000000000E+00 0.  1.
     999901    1    3    3    0    0 -0.13712661894E+00  0.31940310381E-01 -0.33711235916E-02  0.89119877554E+00  0.88000000000E+00 0.  1.
        -11    1    4    4    0    0  0.86570607208E-01 -0.34979159917E-02 -0.98396364047E-02  0.87199684714E-01  0.51100000000E-03 0.  1.
         11    1    4    4    0    0  0.39857839506E-01 -0.73536845496E-02  0.79373185726E-02  0.41303585724E-01  0.51100000000E-03 0. -1.
</event>
<event>
 8    1  0.1166736E+005  0.1043930E+01  0.7957747E-01            NaN
         13   -1    0    0    0    0  0.00000000000E+00  0.00000000000E+00  0.74505805969E-08  0.10566000000E+00  0.10566000000E+00 0.  1.
     999900   -1    0    0    0    0 -0.00000000000E+00 -0.00000000000E+00 -0.74505805969E-08  0.93827000000E+00  0.93827000000E+00 0.  1.
     999902    2    1    2    0    0 -0.13075640183E-01  0.86879139925E-02 -0.18002170849E-01  0.10200442224E+01  0.10197645244E+01 0.  0.
     999903    2    3    3    0    0 -0.12021333003E+00 -0.34617227272E-01  0.32423735267E-01  0.13105795038E+00  0.21801160725E-01 0.  0.
         14    1    1    2    0    0  0.13075640183E-01 -0.86879139925E-02  0.18002170849E-01  0.23885777589E-01  0.00000000000E+00 0.  1.
     999901    1    3    3    0    0  0.10713768985E+00  0.43305141265E-01 -0.50425906116E-01  0.88898627203E+00  0.88000000000E+00 0. -1.
        -11    1    4    4    0    0 -0.27151975338E-01 -0.17601351264E-01  0.73530908117E-02  0.33186840713E-01  0.51100000000E-03 0.  1.
         11    1    4    4    0    0 -0.93061354693E-01 -0.17015876008E-01  0.25070644455E-01  0.97871109670E-01  0.51100000000E-03 0. -1.
</event>
<event>
 8    1  0.1166736E+005  0.1043930E+01  0.7957747E-01            NaN
         13   -1    0    0    0    0  0.00000000000E+00  0.00000000000E+00  0.74505805969E-08  0.10566000000E+00  0.10566000000E+00 0. -1.
     999900   -1    0    0    0    0 -0.00000000000E+00 -0.00000000000E+00 -0.74505805969E-08  0.93827000000E+00  0.93827000000E+00 0. -1.
     999902    2    1    2    0    0 -0.19888908135E-01  0.15932332922E-02 -0.12740856716E-01  0.10202564602E+01  0.10199817685E+01 0.  0.
     999903    2    3    3    0    0 -0.48844307772E-01 -0.97260582965E-01 -0.72497097191E-01  0.13223545790E+00  0.19621412422E-01 0.  0.
         14    1    1    2    0    0  0.19888908135E-01 -0.15932332922E-02  0.12740856716E-01  0.23673539849E-01  0.00000000000E+00 0. -1.
     999901    1    3    3    0    0  0.28955399637E-01  0.98853816257E-01  0.59756240475E-01  0.88802100225E+00  0.88000000000E+00 0.  1.
        -11    1    4    4    0    0 -0.28422508493E-01 -0.71984912028E-01 -0.44094715201E-01  0.89074528224E-01  0.51100000000E-03 0.  1.
         11    1    4    4    0    0 -0.20421799279E-01 -0.25275670938E-01 -0.28402381989E-01  0.43160929680E-01  0.51100000000E-03 0. -1.
</event>
<event>
 8    1  0.1166736E+005  0.1043930E+01  0.7957747E-01            NaN
         13   -1    0    0    0    0  0.00000000000E+00  0.00000000000E+00  0.74505805969E-08  0.10566000000E+00  0.10566000000E+00 0.  1.
     999900   -1    0    0    0    0 -0.00000000000E+00 -0.00000000000E+00 -0.74505805969E-08  0.93827000000E+00  0.93827000000E+00 0.  1.
     999902    2    1    2    0    0  0.12474904127E-01 -0.88478711537E-02 -0.17226378265E-01  0.10208940245E+01  0.10206340937E+01 0.  0.
     999903    2    3    3    0    0 -0.11786925183E+00  0.46664956307E-01 -0.17116141769E-01  0.12956283741E+00  0.20561805767E-01 0.  0.
         14    1    1    2    0    0 -0.12474904127E-01  0.88478711537E-02  0.17226378265E-01  0.23035975453E-01  0.00000000000E+00 0. -1.
     999901    1    3    3    0    0  0.13034415595E+00 -0.55512827460E-01 -0.11023649562E-03  0.89133118713E+00  0.88000000000E+00 0.  1.
        -11    1    4    4    0    0 -0.91378642798E-01  0.36624320681E-01 -0.21834345387E-01  0.10083846976E+00  0.51100000000E-03 0.  1.
         11    1    4    4    0    0 -0.26490609029E-01  0.10040635626E-01  0.47182036182E-02  0.28724367650E-01  0.51100000000E-03 0. -1.
</event>
<event>
 8    1  0.1166736E+005  0.1043930E+01  0.7957747E-01            NaN
         13   -1    0    0    0    0  0.00000000000E+00  0.00000000000E+00  0.74505805969E-08  0.10566000000E+00  0.10566000000E+00 0. -1.
     999900   -1    0    0    0    0 -0.00000000000E+00 -0.00000000000E+00 -0.74505805969E-08  0.93827000000E+00  0.93827000000E+00 0. -1.
     999902    2    1    2    0    0  0.21186550238E-01  0.13882065149E-02 -0.10925499115E-01  0.10200519021E+01  0.10197723861E+01 0.  0.
     999903    2    3    3    0    0 -0.10925929553E+00 -0.57634468507E-01  0.25721919305E-01  0.12772750586E+00  0.19833633082E-01 0.  0.
         14    1    1    2    0    0 -0.21186550238E-01 -0.13882065149E-02  0.10925499115E-01  0.23878097898E-01  0.00000000000E+00 0. -1.
     999901    1    3    3    0    0  0.13044584577E+00  0.59022675022E-01 -0.36647418420E-01  0.89232439624E+00  0.88000000000E+00 0. -1.
        -11    1    4    4    0    0 -0.70583528590E-01 -0.26548982340E-01  0.13344467282E-01  0.76584717141E-01  0.51100000000E-03 0.  1.
         11    1    4    4    0    0 -0.38675766942E-01 -0.31085486166E-01  0.12377452023E-01  0.51142788722E-01  0.51100000000E-03 0. -1.
</event>
<event>
 8    1  0.1166736E+005  0.1043930E+01  0.7957747E-01            NaN
         13   -1    0    0    0    0  0.00000000000E+00  0.00000000000E+00  0.74505805969E-08  0.10566000000E+00  0.10566000000E+00 0.  1.
     999900   -1    0    0    0    0 -0.00000000000E+00 -0.00000000000E+00 -0.74505805969E-08  0.93827000000E+00  0.93827000000E+00 0. -1.
     999902    2    1    2    0    0 -0.19826899569E-01 -0.13052211782E-02 -0.12515776530E-01  0.10204469378E+01  0.10201766997E+01 0.  0.
     999903    2    3    3    0    0 -0.12128571785E+00 -0.51138819485E-01  0.42132286033E-03  0.13312250565E+00  0.19900245809E-01 0.  0.
         14    1    1    2    0    0  0.19826899569E-01  0.13052211782E-02  0.12515776530E-01  0.23483062215E-01  0.00000000000E+00 0. -1.
     999901    1    3    3    0    0  0.10145881828E+00  0.49833598307E-01 -0.12937099390E-01  0.88732443214E+00  0.88000000000E+00 0.  1.
        -11    1    4    4    0    0 -0.57116308921E-01 -0.32569657218E-01 -0.59211351389E-02  0.66017999655E-01  0.51100000000E-03 0. -1.
         11    1    4    4    0    0 -0.64169408932E-01 -0.18569162268E-01  0.63424579992E-02  0.67104505992E-01  0.51100000000E-03 0.  1.
</event>
<event>
 8    1  0.1166736E+005  0.1043930E+01  0.7957747E-01            NaN
         13   -1    0    0    0    0  0.00000000000E+00  0.00000000000E+00  0.74505805969E-08  0.10566000000E+00  0.10566000000E+00 0. -1.
     999900   -1    0    0    0    0 -0.00000000000E+00 -0.00000000000E+00 -0.74505805969E-08  0.93827000000E+00  0.93827000000E+00 0.  1.
     999902    2    1    2    0    0  0.14845563580E-01 -0.40591720199E-02  0.24105075382E-01  0.10153306592E+01  0.10149277931E+01 0.  0.
     999903    2    3    3    0    0  0.11627570097E+00  0.20400734363E-01 -0.41636279922E-01  0.12673160135E+00  0.19776005115E-01 0.  0.
         14    1    1    2    0    0 -0.14845563580E-01  0.40591720199E-02 -0.24105075382E-01  0.28599340809E-01  0.00000000000E+00 0.  1.
     999901    1    3    3    0    0 -0.10143013739E+00 -0.24459906383E-01  0.65741355304E-01  0.88859905784E+00  0.88000000000E+00 0.  1.
        -11    1    4    4    0    0  0.29050853773E-01  0.13491310726E-01 -0.82604901446E-02  0.33082690164E-01  0.51100000000E-03 0.  1.
         11    1    4    4    0    0  0.87224847194E-01  0.69094236371E-02 -0.33375789778E-01  0.93648911191E-01  0.51100000000E-03 0. -1.
</event>
<event>
 8    1  0.1166736E+005  0.1043930E+01  0.7957747E-01            NaN
         13   -1    0    0    0    0  0.00000000000E+00  0.00000000000E+00  0.74505805969E-08  0.10566000000E+00  0.10566000000E+00 0. -1.
     999900   -1    0    0    0    0 -0.00000000000E+00 -0.00000000000E+00 -0.74505805969E-08  0.93827000000E+00  0.93827000000E+00 0. -1.
     999902    2    1    2    0    0  0.17096043069E-01  0.46901373348E-02  0.16992546725E-01  0.10193735605E+01  0.10190777385E+01 0.  0.
     999903    2    3    3    0    0  0.58810264974E-01  0.71825850358E-01  0.92559725909E-01  0.13260545167E+00  0.19982565028E-01 0.  0.
         14    1    1    2    0    0 -0.17096043069E-01 -0.46901373348E-02 -0.16992546725E-01  0.24556439502E-01  0.00000000000E+00 0.  1.
     999901    1    3    3    0    0 -0.41714221904E-01 -0.67135713023E-01 -0.75567179184E-01  0.88676810883E+00  0.88000000000E+00 0. -1.
        -11    1    4    4    0    0  0.39509306986E-01  0.56833315144E-01  0.58187454130E-01  0.90427053407E-01  0.51100000000E-03 0.  1.
         11    1    4    4    0    0  0.19300957988E-01  0.14992535214E-01  0.34372271779E-01  0.42178398258E-01  0.51100000000E-03 0. -1.
</event>
<event>
 8    1  0.1166736E+005  0.1043930E+01  0.7957747E-01            NaN
         13   -1    0    0    0    0  0.00000000000E+00  0.00000000000E+00  0.74505805969E-08  0.10566000000E+00  0.10566000000E+00 0.  1.
     999900   -1    0    0    0    0 -0.00000000000E+00 -0.00000000000E+00 -0.74505805969E-08  0.93827000000E+00  0.93827000000E+00 0.  1.
     999902    2    1    2    0    0  0.21484048641E-01  0.51674482624E-02  0.77585404613E-02  0.10205107383E+01  0.10202419837E+01 0.  0.
     999903    2    3    3    0    0  0.55171156299E-01  0.52843661880E-01 -0.10501381499E+00  0.13139575885E+00  0.20015869122E-01 0.  0.
         14    1    1    2    0    0 -0.21484048641E-01 -0.51674482624E-02 -0.77585404613E-02  0.23419261680E-01  0.00000000000E+00 0.  1.
     999901    1    3    3    0    0 -0.33687107658E-01 -0.47676213617E-01  0.11277235545E+00  0.88911497947E+00  0.88000000000E+00 0. -1.
        -11    1    4    4    0    0  0.36598574140E-01  0.21388897652E-01 -0.54101446029E-01  0.68732584378E-01  0.51100000000E-03 0.  1.
         11    1    4    4    0    0  0.18572582159E-01  0.31454764228E-01 -0.50912368959E-01  0.62663174470E-01  0.51100000000E-03 0. -1.
</event>
<event>
 8    1  0.1166736E+005  0.1043930E+01  0.7957747E-01            NaN
         13   -1    0    0    0    0  0.00000000000E+00  0.00000000000E+00  0.74505805969E-08  0.10566000000E+00  0.10566000000E+00 0.  1.
     999900   -1    0    0    0    0 -0.00000000000E+00 -0.00000000000E+00 -0.74505805969E-08  0.93827000000E+00  0.93827000000E+00 0. -1.
     999902    2    1    2    0    0  0.13112679381E-02 -0.12011834131E-01  0.20856168093E-01  0.10198264042E+01  0.10195415202E+01 0.  0.
     999903    2    3    3    0    0  0.12012261159E-01 -0.12926103996E+00  0.11820136741E-01  0.13193928447E+00  0.20385001436E-01 0.  0.
         14    1    1    2    0    0 -0.13112679381E-02  0.12011834131E-01 -0.20856168093E-01  0.24103595797E-01  0.00000000000E+00 0. -1.
     999901    1    3    3    0    0 -0.10700993220E-01  0.11724920583E+00  0.90360313524E-02  0.88788711973E+00  0.88000000000E+00 0. -1.
        -11    1    4    4    0    0 -0.38023641635E-02 -0.39320808136E-01  0.92785457442E-02  0.40582464905E-01  0.51100000000E-03 0. -1.
         11    1    4    4    0    0  0.15814625322E-01 -0.89940231828E-01  0.25415909968E-02  0.91356819565E-01  0.51100000000E-03 0.  1.
</event>
<event>
 8    1  0.1166736E+005  0.1043930E+01  0.7957747E-01            NaN
         13   -1    0    0    0    0  0.00000000000E+00  0.00000000000E+00  0.74505805969E-08  0.10566000000E+00  0.10566000000E+00 0. -1.
     999900   -1    0    0    0    0 -0.00000000000E+00 -0.00000000000E+00 -0.74505805969E-08  0.93827000000E+00  0.93827000000E+00 0.  1.
     999902    2    1    2    0    0  0.72044171254E-02  0.15243662473E-01  0.16409392150E-01  0.10204025475E+01  0.10201312748E+01 0.  0.
     999903    2    3    3    0    0 -0.72426029406E-01 -0.11172261995E-01  0.10755810487E+00  0.13172549876E+00  0.20310389621E-01 0.  0.
         14    1    1    2    0    0 -0.72044171254E-02 -0.15243662473E-01 -0.16409392150E-01  0.23527452527E-01  0.00000000000E+00 0.  1.
     999901    1    3    3    0    0  0.79630446532E-01  0.26415924468E-01 -0.91148712720E-01  0.88867704871E+00  0.88000000000E+00 0.  1.
        -11    1    4    4    0    0 -0.19575044081E-01 -0.90640670057E-03  0.15143851084E-01  0.24770976374E-01  0.51100000000E-03 0. -1.
         11    1    4    4    0    0 -0.52850985325E-01 -0.10265855295E-01  0.92414253786E-01  0.10695452238E+00  0.51100000000E-03 0.  1.
</event>
<event>
 8    1  0.1166736E+005  0.1043930E+01  0.7957747E-01            NaN
         13   -1    0    0    0    0  0.00000000000E+00  0.00000000000E+00  0.74505805969E-08  0.10566000000E+00  0.10566000000E+00 0.  1.
     999900   -1    0    0    0    0 -0.00000000000E+00 -0.00000000000E+00 -0.74505805969E-08  0.93827000000E+00  0.93827000000E+00 0.  1.
     999902    2    1    2    0    0 -0.17982927631E-02 -0.24259601568E-01  0.16056804662E-02  0.10195509037E+01  0.10192593904E+01 0.  0.
     999903    2    3    3    0    0 -0.11302486754E-02  0.58212238001E-01  0.11301822312E+00  0.12870029602E+00  0.20017625284E-01 0.  0.
         14    1    1    2    0    0  0.17982927631E-02  0.24259601568E-01 -0.16056804662E-02  0.24379096269E-01  0.00000000000E+00 0.  1.
     999901    1    3    3    0    0 -0.66804408771E-03 -0.82471839569E-01 -0.11141254266E+00  0.89085060771E+00  0.88000000000E+00 0.  1.
        -11    1    4    4    0    0 -0.93740538696E-02  0.19892133098E-01  0.34033028460E-01  0.40522561522E-01  0.51100000000E-03 0. -1.
         11    1    4    4    0    0  0.82438051942E-02  0.38320104903E-01  0.78985194662E-01  0.88177734495E-01  0.51100000000E-03 0.  1.
</event>
<event>
 8    1  0.1166736E+005  0.1043930E+01  0.7957747E-01            NaN
         13   -1    0    0    0    0  0.00000000000E+00  0.00000000000E+00  0.74505805969E-08  0.10566000000E+00  0.10566000000E+00 0. -1.
     999900   -1    0    0    0    0 -0.00000000000E+00 -0.00000000000E+00 -0.74505805969E-08  0.93827000000E+00  0.93827000000E+00 0.  1.
     999902    2    1    2    0    0  0.23188946181E-01 -0.17155047898E-02 -0.37718974105E-02  0.10203737399E+01  0.10201017947E+01 0.  0.
     999903    2    3    3    0    0 -0.77938316076E-01 -0.97398069307E-01  0.26715781030E-01  0.12890788249E+00  0.18513351781E-01 0.  0.
         14    1    1    2    0    0 -0.23188946181E-01  0.17155047898E-02  0.37718974105E-02  0.23556260139E-01  0.00000000000E+00 0.  1.
     999901    1    3    3    0    0  0.10112726226E+00  0.95682564517E-01 -0.30487678440E-01  0.89146585737E+00  0.88000000000E+00 0.  1.
        -11    1    4    4    0    0 -0.29387622262E-02 -0.82076614035E-04  0.19725363759E-02  0.35770212114E-02  0.51100000000E-03 0.  1.
         11    1    4    4    0    0 -0.74999553850E-01 -0.97315992693E-01  0.24743244654E-01  0.12533086128E+00  0.51100000000E-03 0. -1.
</event>
<event>
 8    1  0.1166736E+005  0.1043930E+01  0.7957747E-01            NaN
         13   -1    0    0    0    0  0.00000000000E+00  0.00000000000E+00  0.74505805969E-08  0.10566000000E+00  0.10566000000E+00 0.  1.
     999900   -1    0    0    0    0 -0.00000000000E+00 -0.00000000000E+00 -0.74505805969E-08  0.93827000000E+00  0.93827000000E+00 0. -1.
     999902    2    1    2    0    0 -0.82907204972E-03  0.19259216133E-01  0.14169184607E-01  0.10200057328E+01  0.10197251220E+01 0.  0.
     999903    2    3    3    0    0  0.10221200517E+00 -0.76067185048E-01  0.54231773517E-02  0.12883735425E+00  0.18334185474E-01 0.  0.
         14    1    1    2    0    0  0.82907204972E-03 -0.19259216133E-01 -0.14169184607E-01  0.23924267156E-01  0.00000000000E+00 0. -1.
     999901    1    3    3    0    0 -0.10304107722E+00  0.95326401181E-01  0.87460072554E-02  0.89116837859E+00  0.88000000000E+00 0. -1.
        -11    1    4    4    0    0  0.78611410220E-01 -0.49731642045E-01 -0.22038367372E-03  0.93023113941E-01  0.51100000000E-03 0.  1.
         11    1    4    4    0    0  0.23600594948E-01 -0.26335543003E-01  0.56435610254E-02  0.35814240313E-01  0.51100000000E-03 0. -1.
</event>
<event>
 8    1  0.1166736E+005  0.1043930E+01  0.7957747E-01            NaN
         13   -1    0    0    0    0  0.00000000000E+00  0.00000000000E+00  0.74505805969E-08  0.10566000000E+00  0.10566000000E+00 0. -1.
     999900   -1    0    0    0    0 -0.00000000000E+00 -0.00000000000E+00 -0.74505805969E-08  0.93827000000E+00  0.93827000000E+00 0. -1.
     999902    2    1    2    0    0  0.19624796821E-01  0.26390148828E-02  0.13027492525E-01  0.10202274134E+01  0.10199520393E+01 0.  0.
     999903    2    3    3    0    0  0.18924034022E-01  0.10012302825E+00  0.81793776476E-01  0.13217762553E+00  0.19949009297E-01 0.  0.
         14    1    1    2    0    0 -0.19624796821E-01 -0.26390148828E-02 -0.13027492525E-01  0.23702586595E-01  0.00000000000E+00 0.  1.
     999901    1    3    3    0    0  0.70076279938E-03 -0.97484013366E-01 -0.68766283951E-01  0.88804978787E+00  0.88000000000E+00 0.  1.
        -11    1    4    4    0    0  0.16294210924E-01  0.36565907501E-01  0.27824514445E-01  0.48754811313E-01  0.51100000000E-03 0. -1.
         11    1    4    4    0    0  0.26298230973E-02  0.63557120748E-01  0.53969262031E-01  0.83422814220E-01  0.51100000000E-03 0.  1.
</event>
<event>
 8    1  0.1166736E+005  0.1043930E+01  0.7957747E-01            NaN
         13   -1    0    0    0    0  0.00000000000E+00  0.00000000000E+00  0.74505805969E-08  0.10566000000E+00  0.10566000000E+00 0.  1.
     999900   -1    0    0    0    0 -0.00000000000E+00 -0.00000000000E+00 -0.74505805969E-08  0.93827000000E+00  0.93827000000E+00 0.  1.
     999902    2    1    2    0    0  0.42932787116E-02 -0.82978235789E-02  0.25555705661E-01  0.10167200715E+01  0.10163559040E+01 0.  0.
     999903    2    3    3    0    0 -0.78460503719E-02  0.12034379196E+00  0.35288479577E-01  0.12723102970E+00  0.19956687053E-01 0.  0.
         14    1    1    2    0    0 -0.42932787116E-02  0.82978235789E-02 -0.25555705661E-01  0.27209928520E-01  0.00000000000E+00 0. -1.
     999901    1    3    3    0    0  0.12139329083E-01 -0.12864161554E+00 -0.97327739155E-02  0.88948904178E+00  0.88000000000E+00 0. -1.
        -11    1    4    4    0    0 -0.34122893584E-02  0.12693763911E-01 -0.18146080990E-02  0.13278903737E-01  0.51100000000E-03 0. -1.
         11    1    4    4    0    0 -0.44337610135E-02  0.10765002805E+00  0.37103087675E-01  0.11395212596E+00  0.51100000000E-03 0.  1.
</event>
<event>
 8    1  0.1166736E+005  0.1043930E+01  0.7957747E-01            NaN
         13   -1    0    0    0    0  0.00000000000E+00  0.00000000000E+00  0.74505805969E-08  0.10566000000E+00  0.10566000000E+00 0. -1.
     999900   -1    0    0    0    0 -0.00000000000E+00 -0.00000000000E+00 -0.74505805969E-08  0.93827000000E+00  0.93827000000E+00 0.  1.
     999902    2    1    2    0    0  0.17675005685E-01  0.15571257359E-01 -0.40035621396E-02  0.10200365199E+01  0.10197566394E+01 0.  0.
     999903    2    3    3    0    0  0.13005984252E+00  0.10792336424E-01  0.12846899269E-01  0.13271632533E+00  0.20409385741E-01 0.  0.
         14    1    1    2    0    0 -0.17675005685E-01 -0.15571257359E-01  0.40035621396E-02  0.23893480105E-01  0.00000000000E+00 0. -1.
     999901    1    3    3    0    0 -0.11238483683E+00  0.47789209351E-02 -0.16850461409E-01  0.88732019457E+00  0.88000000000E+00 0. -1.
        -11    1    4    4    0    0  0.29980973558E-01 -0.56853372696E-02  0.56101666392E-02  0.31030902760E-01  0.51100000000E-03 0. -1.
         11    1    4    4    0    0  0.10007886896E+00  0.16477673694E-01  0.72367326301E-02  0.10168542257E+00  0.51100000000E-03 0.  1.
</event>
<event>
 8    1  0.1166736E+005  0.1043930E+01  0.7957747E-01            NaN
         13   -1    0    0    0    0  0.00000000000E+00  0.00000000000E+00  0.74505805969E-08  0.10566000000E+00  0.10566000000E+00 0. -1.
     999900   -1    0    0    0    0 -0.00000000000E+00 -0.00000000000E+00 -0.74505805969E-08  0.93827000000E+00  0.93827000000E+00 0. -1.
     999902    2    1    2    0    0 -0.11838702989E-01 -0.34687428544E-02  0.20321750467E-01  0.10201568932E+01  0.10198798587E+01 0.  0.
     999903    2    3    3    0    0 -0.34857280511E-01  0.11900762301E+00 -0.32905616457E-01  0.12978423655E+00  0.19578664946E-01 0.  0.
         14    1    1    2    0    0  0.11838702989E-01  0.34687428544E-02 -0.20321750467E-01  0.23773106812E-01  0.00000000000E+00 0.  1.
     999901    1    3    3    0    0  0.23018577523E-01 -0.12247636587E+00  0.53227366924E-01  0.89037265664E+00  0.88000000000E+00 0. -1.
        -11    1    4    4    0    0 -0.36790906544E-01  0.10366796357E+00 -0.27409101866E-01  0.11336726803E+00  0.51100000000E-03 0.  1.
         11    1    4    4    0    0  0.19336260320E-02  0.15339659447E-01 -0.54965145911E-02  0.16416968516E-01  0.51100000000E-03 0. -1.
</event>
<event>
 8    1  0.1166736E+005  0.1043930E+01  0.7957747E-01            NaN
         13   -1    0    0    0    0  0.00000000000E+00  0.00000000000E+00  0.74505805969E-08  0.10566000000E+00  0.10566000000E+00 0. -1.
     999900   -1    0    0    0    0 -0.00000000000E+00 -0.00000000000E+00 -0.74505805969E-08  0.93827000000E+00  0.93827000000E+00 0.  1.
     999902    2    1    2    0    0 -0.17617350201E-02  0.12760771033E-01  0.18818892142E-01  0.10211244812E+01  0.10208697833E+01 0.  0.
     999903    2    3    3    0    0  0.53607531198E-02  0.17620463386E-02  0.13192734018E+00  0.13378845530E+00  0.21510118642E-01 0.  0.
         14    1    1    2    0    0  0.17617350201E-02 -0.12760771033E-01 -0.18818892142E-01  0.22805518829E-01  0.00000000000E+00 0.  1.
     999901    1    3    3    0    0 -0.71224881398E-02  0.10998724694E-01 -0.11310844804E+00  0.88733602587E+00  0.88000000000E+00 0.  1.
        -11    1    4    4    0    0 -0.54755763704E-02  0.56134105076E-02  0.24111021017E-01  0.25359313271E-01  0.51100000000E-03 0. -1.
         11    1    4    4    0    0  0.10836329490E-01 -0.38513641691E-02  0.10781631916E+00  0.10842914203E+00  0.51100000000E-03 0.  1.
</event>
<event>
 8    1  0.1166736E+005  0.1043930E+01  0.7957747E-01            NaN
         13   -1    0    0    0    0  0.00000000000E+00  0.00000000000E+00  0.74505805969E-08  0.10566000000E+00  0.10566000000E+00 0.  1.
     999900   -1    0    0    0    0 -0.00000000000E+00 -0.00000000000E+00 -0.74505805969E-08  0.93827000000E+00  0.93827000000E+00 0. -1.
     999902    2    1    2    0    0  0.50305613762E-02  0.20163269560E-01 -0.11621368406E-01  0.10201199141E+01  0.10198420069E+01 0.  0.
     999903    2    3    3    0    0  0.11861536523E+00  0.52655822590E-01 -0.15239093311E-01  0.13221768885E+00  0.20175399788E-01 0.  0.
         14    1    1    2    0    0 -0.50305613762E-02 -0.20163269560E-01  0.11621368406E-01  0.23810085904E-01  0.00000000000E+00 0. -1.
     999901    1    3    3    0    0 -0.11358480386E+00 -0.32492553030E-01  0.36177249050E-02  0.88790222525E+00  0.88000000000E+00 0. -1.
        -11    1    4    4    0    0  0.81235411044E-01  0.39524285701E-01 -0.19323004283E-01  0.92385067966E-01  0.51100000000E-03 0. -1.
         11    1    4    4    0    0  0.37379954191E-01  0.13131536889E-01  0.40839109713E-02  0.39832620880E-01  0.51100000000E-03 0.  1.
</event>
<event>
 8    1  0.1166736E+005  0.1043930E+01  0.7957747E-01            NaN
         13   -1    0    0    0    0  0.00000000000E+00  0.00000000000E+00  0.74505805969E-08  0.10566000000E+00  0.10566000000E+00 0. -1.
     999900   -1    0    0    0    0 -0.00000000000E+00 -0.00000000000E+00 -0.74505805969E-08  0.93827000000E+00  0.93827000000E+00 0.  1.
     999902    2    1    2    0    0 -0.18818613507E-01  0.25073240351E-02  0.15929794066E-01  0.10191472393E+01  0.10188458716E+01 0.  0.
     999903    2    3    3    0    0 -0.10754544091E+00 -0.49696676839E-01 -0.50731060905E-01  0.13064210304E+00  0.21399462526E-01 0.  0.
         14    1    1    2    0    0  0.18818613507E-01 -0.25073240351E-02 -0.15929794066E-01  0.24782760685E-01  0.00000000000E+00 0.  1.
     999901    1    3    3    0    0  0.88726827400E-01  0.52204000875E-01  0.66660854971E-01  0.88850513628E+00  0.88000000000E+00 0. -1.
        -11    1    4    4    0    0 -0.98517436743E-01 -0.43154628170E-01 -0.51894627868E-01  0.11942077205E+00  0.51100000000E-03 0. -1.
         11    1    4    4    0    0 -0.90280041648E-02 -0.65420486695E-02  0.11635669632E-02  0.11221330985E-01  0.51100000000E-03 0.  1.
</event>
<event>
 8    1  0.1166736E+005  0.1043930E+01  0.7957747E-01            NaN
         13   -1    0    0    0    0  0.00000000000E+00  0.00000000000E+00  0.74505805969E-08  0.10566000000E+00  0.10566000000E+00 0.  1.
     999900   -1    0    0    0    0 -0.00000000000E+00 -0.00000000000E+00 -0.74505805969E-08  0.93827000000E+00  0.93827000000E+00 0.  1.
     999902    2    1    2    0    0  0.68084985210E-02  0.27354241908E-02  0.22099806892E-01  0.10206439599E+01  0.10203782893E+01 0.  0.
     999903    2    3    3    0    0 -0.77016325141E-02  0.11114355698E+00 -0.63505243782E-01  0.12975053653E+00  0.19750451616E-01 0.  0.
         14    1    1    2    0    0 -0.68084985210E-02 -0.27354241908E-02 -0.22099806892E-01  0.23286040073E-01  0.00000000000E+00 0. -1.
     999901    1    3    3    0    0  0.14510131035E-01 -0.10840813279E+00  0.85605050674E-01  0.89089342340E+00  0.88000000000E+00 0. -1.
        -11    1    4    4    0    0  0.54554128855E-02  0.13457662164E-01 -0.69194029774E-02  0.16093770820E-01  0.51100000000E-03 0.  1.
         11    1    4    4    0    0 -0.13157045400E-01  0.97685894819E-01 -0.56585840805E-01  0.11365676571E+00  0.51100000000E-03 0. -1.
</event>
<event>
 8    1  0.1166736E+005  0.1043930E+01  0.7957747E-01            NaN
         13   -1    0    0    0    0  0.00000000000E+00  0.00000000000E+00  0.74505805969E-08  0.10566000000E+00  0.10566000000E+00 0.  1.
     999900   -1    0    0    0    0 -0.00000000000E+00 -0.00000000000E+00 -0.74505805969E-08  0.93827000000E+00  0.93827000000E+00 0. -1.
     999902    2    1    2    0    0  0.14253043503E-01  0.16162749157E-01  0.83884425697E-02  0.10208053448E+01  0.10205433858E+01 0.  0.
     999903    2    3    3    0    0  0.44310474680E-01 -0.10911729117E+00  0.53058480723E-01  0.13030326733E+00  0.17138777664E-01 0.  0.
         14    1    1    2    0    0 -0.14253043503E-01 -0.16162749157E-01 -0.83884425697E-02  0.23124655201E-01  0.00000000000E+00 0. -1.
     999901    1    3    3    0    0 -0.30057431177E-01  0.12528004033E+00 -0.44670038153E-01  0.89050207747E+00  0.88000000000E+00 0. -1.
        -11    1    4    4    0    0  0.18836715113E-01 -0.66846595974E-01  0.34759769777E-01  0.77664611926E-01  0.51100000000E-03 0.  1.
         11    1    4    4    0    0  0.25473759566E-01 -0.42270695200E-01  0.18298710946E-01  0.52638655401E-01  0.51100000000E-03 0. -1.
</event>
<event>
 8    1  0.1166736E+005  0.1043930E+01  0.7957747E-01            NaN
         13   -1    0    0    0    0  0.00000000000E+00  0.00000000000E+00  0.74505805969E-08  0.10566000000E+00  0.10566000000E+00 0. -1.
     999900   -1    0    0    0    0 -0.00000000000E+00 -0.00000000000E+00 -0.74505805969E-08  0.93827000000E+00  0.93827000000E+00 0.  1.
     999902    2    1    2    0    0  0.11249934270E-02  0.19069640252E-01 -0.10307274836E-01  0.10222238556E+01  0.10219933729E+01 0.  0.
     999903    2    3    3    0    0 -0.21393582955E-01  0.13052119009E+00 -0.17643251187E-01  0.13487817844E+00  0.19681774635E-01 0.  0.
         14    1    1    2    0    0 -0.11249934270E-02 -0.19069640252E-01  0.10307274836E-01  0.21706144386E-01  0.00000000000E+00 0.  1.
     999901    1    3    3    0    0  0.22518576382E-01 -0.11145154984E+00  0.73359763513E-02  0.88734567717E+00  0.88000000000E+00 0. -1.
        -11    1    4    4    0    0 -0.59639029244E-02  0.92058949454E-01 -0.11067344238E-01  0.92914829506E-01  0.51100000000E-03 0. -1.
         11    1    4    4    0    0 -0.15429680030E-01  0.38462240639E-01 -0.65759069498E-02  0.41963348937E-01  0.51100000000E-03 0.  1.
</event>
<event>
 8    1  0.1166736E+005  0.1043930E+01  0.7957747E-01            NaN
         13   -1    0    0    0    0  0.00000000000E+00  0.00000000000E+00  0.74505805969E-08  0.10566000000E+00  0.10566000000E+00 0.  1.
     999900   -1    0    0    0    0 -0.00000000000E+00 -0.00000000000E+00 -0.74505805969E-08  0.93827000000E+00  0.93827000000E+00 0. -1.
     999902    2    1    2    0    0  0.17103401157E-01 -0.39728178855E-02 -0.18132217291E-01  0.10186894192E+01  0.10183766719E+01 0.  0.
     999903    2    3    3    0    0  0.15170348600E-01  0.12266461270E+00  0.28822096227E-01  0.12838302082E+00  0.19358205414E-01 0.  0.
         14    1    1    2    0    0 -0.17103401157E-01  0.39728178855E-02  0.18132217291E-01  0.25240580758E-01  0.00000000000E+00 0. -1.
     999901    1    3    3    0    0  0.19330525572E-02 -0.12663743059E+00 -0.46954313519E-01  0.89030639842E+00  0.88000000000E+00 0.  1.
        -11    1    4    4    0    0  0.15160007546E-01  0.63189455537E-01  0.85437243331E-02  0.65543798077E-01  0.51100000000E-03 0. -1.
         11    1    4    4    0    0  0.10341053882E-04  0.59475157166E-01  0.20278371894E-01  0.62839222740E-01  0.51100000000E-03 0.  1.
</event>
<event>
 8    1  0.1166736E+005  0.1043930E+01  0.7957747E-01            NaN
         13   -1    0    0    0    0  0.00000000000E+00  0.00000000000E+00  0.74505805969E-08  0.10566000000E+00  0.10566000000E+00 0. -1.
     999900   -1    0    0    0    0 -0.00000000000E+00 -0.00000000000E+00 -0.74505805969E-08  0.93827000000E+00  0.93827000000E+00 0.  1.
     999902    2    1    2    0    0  0.60166295971E-02 -0.14062925053E-01 -0.17857642017E-01  0.10204170021E+01  0.10201460665E+01 0.  0.
     999903    2    3    3    0    0  0.31821538508E-01  0.24467830858E-01 -0.12500088324E+00  0.13270635856E+00  0.19351272092E-01 0.  0.
         14    1    1    2    0    0 -0.60166295971E-02  0.14062925053E-01  0.17857642017E-01  0.23512997919E-01  0.00000000000E+00 0. -1.
     999901    1    3    3    0    0 -0.25804908911E-01 -0.38530755911E-01  0.10714324123E+00  0.88771064352E+00  0.88000000000E+00 0. -1.
        -11    1    4    4    0    0  0.33336088868E-01  0.19105215962E-01 -0.11495222483E+00  0.12120469963E+00  0.51100000000E-03 0.  1.
         11    1    4    4    0    0 -0.15145503600E-02  0.53626148961E-02 -0.10048658415E-01  0.11501658935E-01  0.51100000000E-03 0. -1.
</event>
<event>
 8    1  0.1166736E+005  0.1043930E+01  0.7957747E-01            NaN
         13   -1    0    0    0    0  0.00000000000E+00  0.00000000000E+00  0.74505805969E-08  0.10566000000E+00  0.10566000000E+00 0. -1.
     999900   -1    0    0    0    0 -0.00000000000E+00 -0.00000000000E+00 -0.74505805969E-08  0.93827000000E+00  0.93827000000E+00 0.  1.
     999902    2    1    2    0    0  0.12737645462E-01  0.10687316623E-01 -0.19722372318E-01  0.10181339089E+01  0.10178070633E+01 0.  0.
     999903    2    3    3    0    0  0.26064365907E-01  0.12502484433E+00  0.14050046941E-01  0.12999470354E+00  0.19765026126E-01 0.  0.
         14    1    1    2    0    0 -0.12737645462E-01 -0.10687316623E-01  0.19722372318E-01  0.25796091145E-01  0.00000000000E+00 0. -1.
     999901    1    3    3    0    0 -0.13326720446E-01 -0.11433752771E+00 -0.33772419258E-01  0.88813920532E+00  0.88000000000E+00 0. -1.
        -11    1    4    4    0    0  0.13280009697E-01  0.40412269187E-01  0.12747797030E-01  0.44410332227E-01  0.51100000000E-03 0. -1.
         11    1    4    4    0    0  0.12784356210E-01  0.84612575147E-01  0.13022499113E-02  0.85584371311E-01  0.51100000000E-03 0.  1.
</event>
<event>
 8    1  0.1166736E+005  0.1043930E+01  0.7957747E-01            NaN
         13   -1    0    0    0    0  0.00000000000E+00  0.00000000000E+00  0.74505805969E-08  0.10566000000E+00  0.10566000000E+00 0. -1.
     999900   -1    0    0    0    0 -0.00000000000E+00 -0.00000000000E+00 -0.74505805969E-08  0.93827000000E+00  0.93827000000E+00 0.  1.
     999902    2    1    2    0    0 -0.18544684169E-01  0.59154409613E-02 -0.14726486502E-01  0.10195216580E+01  0.10192294364E+01 0.  0.
     999903    2    3    3    0    0 -0.39519108565E-01  0.87062882124E-01 -0.89376363610E-01  0.13239289746E+00  0.19950928317E-01 0.  0.
         14    1    1    2    0    0  0.18544684169E-01 -0.59154409613E-02  0.14726486502E-01  0.24408341964E-01  0.00000000000E+00 0. -1.
     999901    1    3    3    0    0  0.20974424395E-01 -0.81147441163E-01  0.74649877108E-01  0.88712876057E+00  0.88000000000E+00 0. -1.
        -11    1    4    4    0    0 -0.32491167220E-01  0.64765837101E-01 -0.55704534141E-01  0.91397734368E-01  0.51100000000E-03 0.  1.
         11    1    4    4    0    0 -0.70279413443E-02  0.22297045023E-01 -0.33671829469E-01  0.40995163094E-01  0.51100000000E-03 0. -1.
</event>
<event>
 8    1  0.1166736E+005  0.1043930E+01  0.7957747E-01            NaN
         13   -1    0    0    0    0  0.00000000000E+00  0.00000000000E+00  0.74505805969E-08  0.10566000000E+00  0.10566000000E+00 0.  1.
     999900   -1    0    0    0    0 -0.00000000000E+00 -0.00000000000E+00 -0.74505805969E-08  0.93827000000E+00  0.93827000000E+00 0. -1.
     999902    2    1    2    0    0 -0.46452693063E-03 -0.20322161262E-01 -0.87208765331E-02  0.10218107841E+01  0.10215713479E+01 0.  0.
     999903    2    3    3    0    0  0.68845919747E-01 -0.10248275568E-01  0.10921442129E+00  0.13118507392E+00  0.20903252992E-01 0.  0.
         14    1    1    2    0    0  0.46452693063E-03  0.20322161262E-01  0.87208765331E-02  0.22119215880E-01  0.00000000000E+00 0.  1.
     999901    1    3    3    0    0 -0.69310446678E-01 -0.10073885695E-01 -0.11793529782E+00  0.89062571020E+00  0.88000000000E+00 0.  1.
        -11    1    4    4    0    0  0.34059203330E-01 -0.10542303164E-01  0.39126523767E-01  0.52936900840E-01  0.51100000000E-03 0.  1.
         11    1    4    4    0    0  0.34786716418E-01  0.29402759627E-03  0.70087897519E-01  0.78248173084E-01  0.51100000000E-03 0. -1.
</event>
<event>
 8    1  0.1166736E+005  0.1043930E+01  0.7957747E-01            NaN
         13   -1    0    0    0    0  0.00000000000E+00  0.00000000000E+00  0.74505805969E-08  0.10566000000E+00  0.10566000000E+00 0.  1.
     999900   -1    0    0    0    0 -0.00000000000E+00 -0.00000000000E+00 -0.74505805969E-08  0.93827000000E+00  0.93827000000E+00 0.  1.
     999902    2    1    2    0    0 -0.12686645869E-03  0.20222107964E-01  0.12123539211E-01  0.10203518332E+01  0.10200793761E+01 0.  0.
     999903    2    3    3    0    0  0.67991822206E-01  0.87887628120E-01  0.70699586132E-01  0.13319348679E+00  0.19873358594E-01 0.  0.
         14    1    1    2    0    0  0.12686645869E-03 -0.20222107964E-01 -0.12123539211E-01  0.23578166778E-01  0.00000000000E+00 0. -1.
     999901    1    3    3    0    0 -0.68118688665E-01 -0.67665520156E-01 -0.58576046921E-01  0.88715834643E+00  0.88000000000E+00 0.  1.
        -11    1    4    4    0    0  0.17609978880E-01  0.15066784548E-01  0.22807389087E-01  0.32520108713E-01  0.51100000000E-03 0.  1.
         11    1    4    4    0    0  0.50381843326E-01  0.72820843572E-01  0.47892197045E-01  0.10067337808E+00  0.51100000000E-03 0. -1.
</event>
<event>
 8    1  0.1166736E+005  0.1043930E+01  0.7957747E-01            NaN
         13   -1    0    0    0    0  0.00000000000E+00  0.00000000000E+00  0.74505805969E-08  0.10566000000E+00  0.10566000000E+00 0.  1.
     999900   -1    0    0    0    0 -0.00000000000E+00 -0.00000000000E+00 -0.74505805969E-08  0.93827000000E+00  0.93827000000E+00 0.  1.
     999902    2    1    2    0    0 -0.17086700598E-03 -0.70910241312E-02 -0.23928909245E-01  0.10189719449E+01  0.10186662456E+01 0.  0.
     999903    2    3    3    0    0  0.93053639122E-01 -0.87733039618E-01 -0.14980071875E-01  0.13033589737E+00  0.20173685721E-01 0.  0.
         14    1    1    2    0    0  0.17086700598E-03  0.70910241312E-02  0.23928909245E-01  0.24958055141E-01  0.00000000000E+00 0.  1.
     999901    1    3    3    0    0 -0.93224506128E-01  0.80642015487E-01 -0.89488373708E-02  0.88863604749E+00  0.88000000000E+00 0. -1.
        -11    1    4    4    0    0  0.84702821903E-01 -0.82343308643E-01 -0.18909214026E-01  0.11963614844E+00  0.51100000000E-03 0. -1.
         11    1    4    4    0    0  0.83508172188E-02 -0.53897309748E-02  0.39291421516E-02  0.10699748934E-01  0.51100000000E-03 0.  1.
</event>
<event>
 8    1  0.1166736E+005  0.1043930E+01  0.7957747E-01            NaN
         13   -1    0    0    0    0  0.00000000000E+00  0.00000000000E+00  0.74505805969E-08  0.10566000000E+00  0.10566000000E+00 0. -1.
     999900   -1    0    0    0    0 -0.00000000000E+00 -0.00000000000E+00 -0.74505805969E-08  0.93827000000E+00  0.93827000000E+00 0. -1.
     999902    2    1    2    0    0 -0.14391809320E-02  0.23424565166E-01 -0.43163728486E-02  0.10200676328E+01  0.10197884893E+01 0.  0.
     999903    2    3    3    0    0 -0.38327790257E-01  0.57936808046E-01  0.10965830213E+00  0.13128076803E+00  0.19596009729E-01 0.  0.
         14    1    1    2    0    0  0.14391809320E-02 -0.23424565166E-01  0.43163728486E-02  0.23862367224E-01  0.00000000000E+00 0. -1.
     999901    1    3    3    0    0  0.36888609325E-01 -0.34512242880E-01 -0.11397467497E+00  0.88878686474E+00  0.88000000000E+00 0. -1.
        -11    1    4    4    0    0 -0.24578784741E-01  0.24617872422E-01  0.66476646885E-01  0.75030407196E-01  0.51100000000E-03 0.  1.
         11    1    4    4    0    0 -0.13749005515E-01  0.33318935623E-01  0.43181655241E-01  0.56250360835E-01  0.51100000000E-03 0. -1.
</event>
<event>
 8    1  0.1166736E+005  0.1043930E+01  0.7957747E-01            NaN
         13   -1    0    0    0    0  0.00000000000E+00  0.00000000000E+00  0.74505805969E-08  0.10566000000E+00  0.10566000000E+00 0.  1.
     999900   -1    0    0    0    0 -0.00000000000E+00 -0.00000000000E+00 -0.74505805969E-08  0.93827000000E+00  0.93827000000E+00 0. -1.
     999902    2    1    2    0    0 -0.14125200699E-01  0.20511624127E-01  0.41725212303E-03  0.10190217259E+01  0.10187172600E+01 0.  0.
     999903    2    3    3    0    0 -0.58138728336E-01 -0.89811517190E-01 -0.68136712564E-01  0.12839945344E+00  0.19939601132E-01 0.  0.
         14    1    1    2    0    0  0.14125200699E-01 -0.20511624127E-01 -0.41725212303E-03  0.24908274097E-01  0.00000000000E+00 0.  1.
     999901    1    3    3    0    0  0.44013527637E-01  0.11032314132E+00  0.68553964687E-01  0.89062227246E+00  0.88000000000E+00 0. -1.
        -11    1    4    4    0    0 -0.40653158888E-01 -0.56715972560E-01 -0.33532867158E-01  0.77421542040E-01  0.51100000000E-03 0.  1.
         11    1    4    4    0    0 -0.17485569448E-01 -0.33095544630E-01 -0.34603845406E-01  0.50977911404E-01  0.51100000000E-03 0. -1.
</event>
<event>
 8    1  0.1166736E+005  0.1043930E+01  0.7957747E-01            NaN
         13   -1    0    0    0    0  0.00000000000E+00  0.00000000000E+00  0.74505805969E-08  0.10566000000E+00  0.10566000000E+00 0.  1.
     999900   -1    0    0    0    0 -0.00000000000E+00 -0.00000000000E+00 -0.74505805969E-08  0.93827000000E+00  0.93827000000E+00 0.  1.
     999902    2    1    2    0    0 -0.57861775588E-02  0.22499454738E-01  0.65011068897E-02  0.10198059517E+01  0.10195205782E+01 0.  0.
     999903    2    3    3    0    0 -0.99412626184E-01 -0.21538773760E-01  0.79637909880E-01  0.13073100022E+00  0.20040177339E-01 0.  0.
         14    1    1    2    0    0  0.57861775588E-02 -0.22499454738E-01 -0.65011068897E-02  0.24124048272E-01  0.00000000000E+00 0. -1.
     999901    1    3    3    0    0  0.93626448626E-01  0.44038228498E-01 -0.73136802990E-01  0.88907495151E+00  0.88000000000E+00 0.  1.
        -11    1    4    4    0    0 -0.32023007730E-01 -0.79055409122E-02  0.14555622830E-01  0.36056870055E-01  0.51100000000E-03 0.  1.
         11    1    4    4    0    0 -0.67389618454E-01 -0.13633232848E-01  0.65082287050E-01  0.94674130162E-01  0.51100000000E-03 0. -1.
</event>
<event>
 8    1  0.1166736E+005  0.1043930E+01  0.7957747E-01            NaN
         13   -1    0    0    0    0  0.00000000000E+00  0.00000000000E+00  0.74505805969E-08  0.10566000000E+00  0.10566000000E+00 0.  1.
     999900   -1    0    0    0    0 -0.00000000000E+00 -0.00000000000E+00 -0.74505805969E-08  0.93827000000E+00  0.93827000000E+00 0.  1.
     999902    2    1    2    0    0 -0.74093702410E-02 -0.41700492997E-02  0.22431433327E-01  0.10199413093E+01  0.10196591672E+01 0.  0.
     999903    2    3    3    0    0  0.46388376995E-01 -0.10339807164E+00 -0.58473307155E-01  0.12905075767E+00  0.19797163063E-01 0.  0.
         14    1    1    2    0    0  0.74093702410E-02  0.41700492997E-02 -0.22431433327E-01  0.23988690661E-01  0.00000000000E+00 0. -1.
     999901    1    3    3    0    0 -0.53797747236E-01  0.99228022342E-01  0.80904740482E-01  0.89089055167E+00  0.88000000000E+00 0. -1.
        -11    1    4    4    0    0  0.34666266644E-01 -0.62154715558E-01 -0.28163927471E-01  0.76540359554E-01  0.51100000000E-03 0.  1.
         11    1    4    4    0    0  0.11722110352E-01 -0.41243356084E-01 -0.30309379684E-01  0.52510398113E-01  0.51100000000E-03 0. -1.
</event>
<event>
 8    1  0.1166736E+005  0.1043930E+01  0.7957747E-01            NaN
         13   -1    0    0    0    0  0.00000000000E+00  0.00000000000E+00  0.74505805969E-08  0.10566000000E+00  0.10566000000E+00 0.  1.
     999900   -1    0    0    0    0 -0.00000000000E+00 -0.00000000000E+00 -0.74505805969E-08  0.93827000000E+00  0.93827000000E+00 0.  1.
     999902    2    1    2    0    0 -0.39857222915E-02 -0.23214983940E-01 -0.24154056757E-02  0.10202518319E+01  0.10199770315E+01 0.  0.
     999903    2    3    3    0    0 -0.12142094706E+00  0.32152574352E-01  0.28092177395E-01  0.13020278201E+00  0.19666204245E-01 0.  0.
         14    1    1    2    0    0  0.39857222915E-02  0.23214983940E-01  0.24154056757E-02  0.23678168132E-01  0.00000000000E+00 0.  1.
     999901    1    3    3    0    0  0.11743522477E+00 -0.55367558292E-01 -0.30507583071E-01  0.89004904986E+00  0.88000000000E+00 0.  1.
        -11    1    4    4    0    0 -0.60639593360E-01  0.19216748428E-01  0.46493674775E-02  0.63783394720E-01  0.51100000000E-03 0. -1.
         11    1    4    4    0    0 -0.60781353702E-01  0.12935825924E-01  0.23442809917E-01  0.66419387290E-01  0.51100000000E-03 0.  1.
</event>
<event>
 8    1  0.1166736E+005  0.1043930E+01  0.7957747E-01            NaN
         13   -1    0    0    0    0  0.00000000000E+00  0.00000000000E+00  0.74505805969E-08  0.10566000000E+00  0.10566000000E+00 0.  1.
     999900   -1    0    0    0    0 -0.00000000000E+00 -0.00000000000E+00 -0.74505805969E-08  0.93827000000E+00  0.93827000000E+00 0. -1.
     999902    2    1    2    0    0 -0.16483253932E-01  0.75106513151E-02 -0.17752312740E-01  0.10185675839E+01  0.10182517718E+01 0.  0.
     999903    2    3    3    0    0  0.75826723158E-01 -0.39519664326E-01  0.90386108509E-01  0.12591597178E+00  0.19330999027E-01 0.  0.
         14    1    1    2    0    0  0.16483253932E-01 -0.75106513151E-02  0.17752312740E-01  0.25362416111E-01  0.00000000000E+00 0. -1.
     999901    1    3    3    0    0 -0.92309977090E-01  0.47030315642E-01 -0.10813842125E+00  0.89265161211E+00  0.88000000000E+00 0. -1.
        -11    1    4    4    0    0  0.44161850263E-01 -0.27851689915E-01  0.66593993839E-01  0.84622732089E-01  0.51100000000E-03 0. -1.
         11    1    4    4    0    0  0.31664872895E-01 -0.11667974412E-01  0.23792114670E-01  0.41293239687E-01  0.51100000000E-03 0.  1.
</event>
<event>
 8    1  0.1166736E+005  0.1043930E+01  0.7957747E-01            NaN
         13   -1    0    0    0    0  0.00000000000E+00  0.00000000000E+00  0.74505805969E-08  0.10566000000E+00  0.10566000000E+00 0.  1.
     999900   -1    0    0    0    0 -0.00000000000E+00 -0.00000000000E+00 -0.74505805969E-08  0.93827000000E+00  0.93827000000E+00 0.  1.
     999902    2    1    2    0    0 -0.99458909070E-03 -0.19296319092E-01  0.12168494266E-01  0.10210956095E+01  0.10208402590E+01 0.  0.
     999903    2    3    3    0    0 -0.38217622504E-01 -0.12417234824E+00 -0.21301233078E-01  0.13345561581E+00  0.21847199418E-01 0.  0.
         14    1    1    2    0    0  0.99458909070E-03  0.19296319092E-01 -0.12168494266E-01  0.22834390526E-01  0.00000000000E+00 0. -1.
     999901    1    3    3    0    0  0.37223033414E-01  0.10487602915E+00  0.33469727345E-01  0.88763999367E+00  0.88000000000E+00 0. -1.
        -11    1    4    4    0    0 -0.23037214333E-01 -0.97381405941E-01 -0.22751943066E-01  0.10262438064E+00  0.51100000000E-03 0.  1.
         11    1    4    4    0    0 -0.15180408171E-01 -0.26790942301E-01  0.14507099871E-02  0.30831235170E-01  0.51100000000E-03 0. -1.
</event>
<event>
 8    1  0.1166736E+005  0.1043930E+01  0.7957747E-01            NaN
         13   -1    0    0    0    0  0.00000000000E+00  0.00000000000E+00  0.74505805969E-08  0.10566000000E+00  0.10566000000E+00 0.  1.
     999900   -1    0    0    0    0 -0.00000000000E+00 -0.00000000000E+00 -0.74505805969E-08  0.93827000000E+00  0.93827000000E+00 0.  1.
     999902    2    1    2    0    0 -0.22780763203E-01 -0.13958685264E-03  0.13217454129E-02  0.10211104981E+01  0.10208554842E+01 0.  0.
     999903    2    3    3    0    0 -0.11100434303E+00  0.28422805693E-01  0.66178666487E-01  0.13386440454E+00  0.20254452604E-01 0.  0.
         14    1    1    2    0    0  0.22780763203E-01  0.13958685264E-03 -0.13217454129E-02  0.22819501913E-01  0.00000000000E+00 0. -1.
     999901    1    3    3    0    0  0.88223579824E-01 -0.28562392546E-01 -0.64856921074E-01  0.88724609355E+00  0.88000000000E+00 0.  1.
        -11    1    4    4    0    0 -0.73105739765E-01  0.11717768325E-01  0.34313665821E-01  0.81605416880E-01  0.51100000000E-03 0. -1.
         11    1    4    4    0    0 -0.37898603262E-01  0.16705037368E-01  0.31865000667E-01  0.52258987659E-01  0.51100000000E-03 0.  1.
</event>
<event>
 7    1  0.1166736E+005  0.1043930E+01  0.7957747E-01            NaN
         13   -1    0    0    0    0  0.00000000000E+00  0.00000000000E+00  0.74505805969E-08  0.10566000000E+00  0.10566000000E+00 0. -1.
     999900   -1    0    0    0    0 -0.00000000000E+00 -0.00000000000E+00 -0.74505805969E-08  0.93827000000E+00  0.93827000000E+00 0. -1.
     999903    2    1    2    0    0 -0.20023024894E-01  0.10102774604E+00  0.27383872576E-02  0.10502322917E+00  0.20367938107E-01 0.  0.
         14    1    1    2    0    0 -0.72268951114E-02 -0.51643304976E-01 -0.22704781344E-01  0.56875003803E-01  0.00000000000E+00 0.  1.
     999901    1    1    2    0    0  0.27249920005E-01 -0.49384441069E-01  0.19966394086E-01  0.88203176703E+00  0.88000000000E+00 0. -1.
        -11    1    3    3    0    0 -0.13580362257E-01  0.33268083929E-01  0.77810425103E-02  0.36769517143E-01  0.51100000000E-03 0. -1.
         11    1    3    3    0    0 -0.64426626371E-02  0.67759662115E-01 -0.50426552527E-02  0.68253712022E-01  0.51100000000E-03 0.  1.
</event>
<event>
 8    1  0.1166736E+005  0.1043930E+01  0.7957747E-01            NaN
         13   -1    0    0    0    0  0.00000000000E+00  0.00000000000E+00  0.74505805969E-08  0.10566000000E+00  0.10566000000E+00 0. -1.
     999900   -1    0    0    0    0 -0.00000000000E+00 -0.00000000000E+00 -0.74505805969E-08  0.93827000000E+00  0.93827000000E+00 0.  1.
     999902    2    1    2    0    0 -0.12214832313E-01 -0.20905761336E-01 -0.26643069651E-02  0.10195711922E+01  0.10192801698E+01 0.  0.
     999903    2    3    3    0    0 -0.95119209717E-02 -0.24880787380E-03 -0.12841469035E+00  0.13038776098E+00  0.20496267207E-01 0.  0.
         14    1    1    2    0    0  0.12214832313E-01  0.20905761336E-01  0.26643069651E-02  0.24358807793E-01  0.00000000000E+00 0. -1.
     999901    1    3    3    0    0 -0.27029113418E-02 -0.20656953462E-01  0.12575038338E+00  0.88918343123E+00  0.88000000000E+00 0. -1.
        -11    1    4    4    0    0 -0.11148384736E-01  0.48585859494E-02 -0.40044464046E-01  0.41853465345E-01  0.51100000000E-03 0.  1.
         11    1    4    4    0    0  0.16364637647E-02 -0.51073938232E-02 -0.88370226301E-01  0.88534295631E-01  0.51100000000E-03 0. -1.
</event>
<event>
 8    1  0.1166736E+005  0.1043930E+01  0.7957747E-01            NaN
         13   -1    0    0    0    0  0.00000000000E+00  0.00000000000E+00  0.74505805969E-08  0.10566000000E+00  0.10566000000E+00 0. -1.
     999900   -1    0    0    0    0 -0.00000000000E+00 -0.00000000000E+00 -0.74505805969E-08  0.93827000000E+00  0.93827000000E+00 0.  1.
     999902    2    1    2    0    0 -0.15724036277E-01  0.16409862352E-01 -0.22236437824E-01  0.10121339615E+01  0.10116344043E+01 0.  0.
     999903    2    3    3    0    0 -0.92846785628E-01  0.26572923963E-01  0.74118462179E-01  0.12346334023E+00  0.20567062425E-01 0.  0.
         14    1    1    2    0    0  0.15724036277E-01 -0.16409862352E-01  0.22236437824E-01  0.31796038532E-01  0.00000000000E+00 0. -1.
     999901    1    3    3    0    0  0.77122749351E-01 -0.10163061611E-01 -0.96354900002E-01  0.88867062123E+00  0.88000000000E+00 0.  1.
        -11    1    4    4    0    0 -0.68427032350E-01  0.26713901464E-01  0.62344111424E-01  0.96348018339E-01  0.51100000000E-03 0. -1.
         11    1    4    4    0    0 -0.24419753277E-01 -0.14097750048E-03  0.11774350755E-01  0.27115321895E-01  0.51100000000E-03 0.  1.
</event>
<event>
 8    1  0.1166736E+005  0.1043930E+01  0.7957747E-01            NaN
         13   -1    0    0    0    0  0.00000000000E+00  0.00000000000E+00  0.74505805969E-08  0.10566000000E+00  0.10566000000E+00 0. -1.
     999900   -1    0    0    0    0 -0.00000000000E+00 -0.00000000000E+00 -0.74505805969E-08  0.93827000000E+00  0.93827000000E+00 0. -1.
     999902    2    1    2    0    0  0.21859682109E-01  0.49845450523E-02 -0.74152751053E-02  0.10203147995E+01  0.10200414758E+01 0.  0.
     999903    2    3    3    0    0 -0.65066799911E-01  0.11037235827E+00  0.44742937362E-02  0.12969469735E+00  0.19620124759E-01 0.  0.
         14    1    1    2    0    0 -0.21859682109E-01 -0.49845450523E-02  0.74152751053E-02  0.23615200532E-01  0.00000000000E+00 0.  1.
     999901    1    3    3    0    0  0.86926482020E-01 -0.10538781322E+00 -0.11889568841E-01  0.89062010212E+00  0.88000000000E+00 0.  1.
        -11    1    4    4    0    0 -0.54875528323E-01  0.10083499311E+00 -0.69044109020E-03  0.11480312398E+00  0.51100000000E-03 0.  1.
         11    1    4    4    0    0 -0.10191271588E-01  0.95373651570E-02  0.51647348264E-02  0.14891573374E-01  0.51100000000E-03 0. -1.
</event>
<event>
 8    1  0.1166736E+005  0.1043930E+01  0.7957747E-01            NaN
         13   -1    0    0    0    0  0.00000000000E+00  0.00000000000E+00  0.74505805969E-08  0.10566000000E+00  0.10566000000E+00 0.  1.
     999900   -1    0    0    0    0 -0.00000000000E+00 -0.00000000000E+00 -0.74505805969E-08  0.93827000000E+00  0.93827000000E+00 0. -1.
     999902    2    1    2    0    0 -0.21323459212E-01  0.51371489046E-02 -0.81979831298E-02  0.10205144680E+01  0.10202457999E+01 0.  0.
     999903    2    3    3    0    0  0.72034253799E-01  0.65691280681E-01  0.81930155142E-01  0.12893971131E+00  0.20214369959E-01 0.  0.
         14    1    1    2    0    0  0.21323459212E-01 -0.51371489046E-02  0.81979831298E-02  0.23415532004E-01  0.00000000000E+00 0.  1.
     999901    1    3    3    0    0 -0.93357713011E-01 -0.60554131776E-01 -0.90128138272E-01  0.89157475669E+00  0.88000000000E+00 0.  1.
        -11    1    4    4    0    0  0.14880323315E-01  0.61554112229E-02  0.20408406072E-01  0.26001485894E-01  0.51100000000E-03 0. -1.
         11    1    4    4    0    0  0.57153930484E-01  0.59535869458E-01  0.61521749070E-01  0.10293822541E+00  0.51100000000E-03 0.  1.
</event>
<event>
 8    1  0.1166736E+005  0.1043930E+01  0.7957747E-01            NaN
         13   -1    0    0    0    0  0.00000000000E+00  0.00000000000E+00  0.74505805969E-08  0.10566000000E+00  0.10566000000E+00 0.  1.
     999900   -1    0    0    0    0 -0.00000000000E+00 -0.00000000000E+00 -0.74505805969E-08  0.93827000000E+00  0.93827000000E+00 0.  1.
     999902    2    1    2    0    0  0.61969752484E-02  0.22861477342E-01 -0.28823765086E-02  0.10200687816E+01  0.10197896653E+01 0.  0.
     999903    2    3    3    0    0 -0.83231570330E-01 -0.92297833966E-01 -0.23348963248E-01  0.12783674177E+00  0.18726291905E-01 0.  0.
         14    1    1    2    0    0 -0.61969752484E-02 -0.22861477342E-01  0.28823765086E-02  0.23861218385E-01  0.00000000000E+00 0.  1.
     999901    1    3    3    0    0  0.89428545578E-01  0.11515931131E+00  0.20466586739E-01  0.89223203984E+00  0.88000000000E+00 0. -1.
        -11    1    4    4    0    0 -0.50223441223E-02 -0.11228016243E-01 -0.65489406331E-02  0.13944247332E-01  0.51100000000E-03 0.  1.
         11    1    4    4    0    0 -0.78209226207E-01 -0.81069817723E-01 -0.16800022615E-01  0.11389249444E+00  0.51100000000E-03 0. -1.
</event>
<event>
 8    1  0.1166736E+005  0.1043930E+01  0.7957747E-01            NaN
         13   -1    0    0    0    0  0.00000000000E+00  0.00000000000E+00  0.74505805969E-08  0.10566000000E+00  0.10566000000E+00 0. -1.
     999900   -1    0    0    0    0 -0.00000000000E+00 -0.00000000000E+00 -0.74505805969E-08  0.93827000000E+00  0.93827000000E+00 0.  1.
     999902    2    1    2    0    0 -0.66101313660E-04 -0.63796694625E-02  0.22925767557E-01  0.10201330386E+01  0.10198554413E+01 0.  0.
     999903    2    3    3    0    0 -0.15684658356E-01  0.10732700112E+00 -0.65507142288E-01  0.12828466263E+00  0.20016875336E-01 0.  0.
         14    1    1    2    0    0  0.66101313660E-04  0.63796694625E-02 -0.22925767557E-01  0.23796961358E-01  0.00000000000E+00 0.  1.
     999901    1    3    3    0    0  0.15618557043E-01 -0.11370667058E+00  0.88432909844E-01  0.89184837602E+00  0.88000000000E+00 0. -1.
        -11    1    4    4    0    0  0.19609654498E-02  0.18915922736E-01 -0.18807224255E-01  0.26751267701E-01  0.51100000000E-03 0.  1.
         11    1    4    4    0    0 -0.17645623806E-01  0.88411078380E-01 -0.46699918033E-01  0.10153339493E+00  0.51100000000E-03 0. -1.
</event>
<event>
 8    1  0.1166736E+005  0.1043930E+01  0.7957747E-01            NaN
         13   -1    0    0    0    0  0.00000000000E+00  0.00000000000E+00  0.74505805969E-08  0.10566000000E+00  0.10566000000E+00 0.  1.
     999900   -1    0    0    0    0 -0.00000000000E+00 -0.00000000000E+00 -0.74505805969E-08  0.93827000000E+00  0.93827000000E+00 0.  1.
     999902    2    1    2    0    0 -0.14479573988E-01  0.28137155053E-02 -0.18482156715E-01  0.10202833264E+01  0.10200092651E+01 0.  0.
     999903    2    3    3    0    0  0.90652563673E-01  0.59933387483E-01 -0.69026775831E-01  0.13074963850E+00  0.22822663106E-01 0.  0.
         14    1    1    2    0    0  0.14479573988E-01 -0.28137155053E-02  0.18482156715E-01  0.23646673649E-01  0.00000000000E+00 0.  1.
     999901    1    3    3    0    0 -0.10513213766E+00 -0.57119671978E-01  0.50544619116E-01  0.88953368785E+00  0.88000000000E+00 0. -1.
        -11    1    4    4    0    0  0.84086907861E-01  0.52829657296E-01 -0.69237566843E-01  0.12106065648E+00  0.51100000000E-03 0. -1.
         11    1    4    4    0    0  0.65656558120E-02  0.71037301875E-02  0.21079101196E-03  0.96889820244E-02  0.51100000000E-03 0.  1.
</event>
<event>
 8    1  0.1166736E+005  0.1043930E+01  0.7957747E-01            NaN
         13   -1    0    0    0    0  0.00000000000E+00  0.00000000000E+00  0.74505805969E-08  0.10566000000E+00  0.10566000000E+00 0. -1.
     999900   -1    0    0    0    0 -0.00000000000E+00 -0.00000000000E+00 -0.74505805969E-08  0.93827000000E+00  0.93827000000E+00 0.  1.
     999902    2    1    2    0    0 -0.55370305899E-02  0.20101111410E-01 -0.20906386193E-02  0.10229756649E+01  0.10227610312E+01 0.  0.
     999903    2    3    3    0    0  0.79873691648E-01  0.66085110914E-01 -0.83053197490E-01  0.13395122455E+00  0.17264079564E-01 0.  0.
         14    1    1    2    0    0  0.55370305899E-02 -0.20101111410E-01  0.20906386193E-02  0.20954335053E-01  0.00000000000E+00 0.  1.
     999901    1    3    3    0    0 -0.85410722238E-01 -0.45983999503E-01  0.80962558871E-01  0.88902444040E+00  0.88000000000E+00 0. -1.
        -11    1    4    4    0    0  0.37499837606E-01  0.28657286035E-01 -0.48572664609E-01  0.67727710219E-01  0.51100000000E-03 0. -1.
         11    1    4    4    0    0  0.42373854042E-01  0.37427824879E-01 -0.34480532881E-01  0.66223514331E-01  0.51100000000E-03 0.  1.
</event>
<event>
 8    1  0.1166736E+005  0.1043930E+01  0.7957747E-01            NaN
         13   -1    0    0    0    0  0.00000000000E+00  0.00000000000E+00  0.74505805969E-08  0.10566000000E+00  0.10566000000E+00 0.  1.
     999900   -1    0    0    0    0 -0.00000000000E+00 -0.00000000000E+00 -0.74505805969E-08  0.93827000000E+00  0.93827000000E+00 0.  1.
     999902    2    1    2    0    0  0.24324543949E-01  0.22184800408E-02  0.35091425685E-02  0.10192537123E+01  0.10189549602E+01 0.  0.
     999903    2    3    3    0    0  0.12297493850E-01  0.88731679563E-01  0.92626004948E-01  0.13045058520E+00  0.20328282581E-01 0.  0.
         14    1    1    2    0    0 -0.24324543949E-01 -0.22184800408E-02 -0.35091425685E-02  0.24676287678E-01  0.00000000000E+00 0.  1.
     999901    1    3    3    0    0  0.12027050099E-01 -0.86513199522E-01 -0.89116862379E-01  0.88880312712E+00  0.88000000000E+00 0.  1.
        -11    1    4    4    0    0 -0.39449236176E-02  0.41219960895E-01  0.46497372921E-01  0.62264872987E-01  0.51100000000E-03 0.  1.
         11    1    4    4    0    0  0.16242417467E-01  0.47511718668E-01  0.46128632027E-01  0.68185712210E-01  0.51100000000E-03 0. -1.
</event>
<event>
 8    1  0.1166736E+005  0.1043930E+01  0.7957747E-01            NaN
         13   -1    0    0    0    0  0.00000000000E+00  0.00000000000E+00  0.74505805969E-08  0.10566000000E+00  0.10566000000E+00 0.  1.
     999900   -1    0    0    0    0 -0.00000000000E+00 -0.00000000000E+00 -0.74505805969E-08  0.93827000000E+00  0.93827000000E+00 0. -1.
     999902    2    1    2    0    0  0.22836831922E-01  0.21768202731E-02  0.82470764266E-02  0.10195522702E+01  0.10192607900E+01 0.  0.
     999903    2    3    3    0    0  0.37616303097E-01  0.11025200907E+00 -0.55482967522E-01  0.13053022456E+00  0.19730384560E-01 0.  0.
         14    1    1    2    0    0 -0.22836831922E-01 -0.21768202731E-02 -0.82470764266E-02  0.24377729762E-01  0.00000000000E+00 0. -1.
     999901    1    3    3    0    0 -0.14779471174E-01 -0.10807518880E+00  0.63730043948E-01  0.88902204568E+00  0.88000000000E+00 0.  1.
        -11    1    4    4    0    0  0.30216777956E-01  0.61251756613E-01 -0.27607009892E-01  0.73669800287E-01  0.51100000000E-03 0.  1.
         11    1    4    4    0    0  0.73995251405E-02  0.49000252461E-01 -0.27875957630E-01  0.56860424272E-01  0.51100000000E-03 0. -1.
</event>
<event>
 8    1  0.1166736E+005  0.1043930E+01  0.7957747E-01            NaN
         13   -1    0    0    0    0  0.00000000000E+00  0.00000000000E+00  0.74505805969E-08  0.10566000000E+00  0.10566000000E+00 0. -1.
     999900   -1    0    0    0    0 -0.00000000000E+00 -0.00000000000E+00 -0.74505805969E-08  0.93827000000E+00  0.93827000000E+00 0.  1.
     999902    2    1    2    0    0 -0.15435836222E-02 -0.23811810234E-01 -0.72772470094E-02  0.10189831910E+01  0.10186777705E+01 0.  0.
     999903    2    3    3    0    0  0.12738681424E+00  0.12252743154E-01 -0.12526781181E-02  0.12883713838E+00  0.14829324487E-01 0.  0.
         14    1    1    2    0    0  0.15435836222E-02  0.23811810234E-01  0.72772470094E-02  0.24946809035E-01  0.00000000000E+00 0. -1.
     999901    1    3    3    0    0 -0.12893039787E+00 -0.36064553388E-01 -0.60245688914E-02  0.89014605259E+00  0.88000000000E+00 0.  1.
        -11    1    4    4    0    0  0.87722278722E-01  0.20016548374E-02 -0.33721376337E-02  0.87811373064E-01  0.51100000000E-03 0. -1.
         11    1    4    4    0    0  0.39664535523E-01  0.10251088317E-01  0.21194595157E-02  0.41025765314E-01  0.51100000000E-03 0.  1.
</event>
<event>
 8    1  0.1166736E+005  0.1043930E+01  0.7957747E-01            NaN
         13   -1    0    0    0    0  0.00000000000E+00  0.00000000000E+00  0.74505805969E-08  0.10566000000E+00  0.10566000000E+00 0.  1.
     999900   -1    0    0    0    0 -0.00000000000E+00 -0.00000000000E+00 -0.74505805969E-08  0.93827000000E+00  0.93827000000E+00 0.  1.
     999902    2    1    2    0    0  0.56111880520E-02 -0.17628020709E-01  0.15407767208E-01  0.10198544556E+01  0.10195702422E+01 0.  0.
     999903    2    3    3    0    0 -0.57373765935E-01 -0.11697204794E+00  0.50769569580E-02  0.13196760147E+00  0.20382917582E-01 0.  0.
         14    1    1    2    0    0 -0.56111880520E-02  0.17628020709E-01 -0.15407767208E-01  0.24075544352E-01  0.00000000000E+00 0. -1.
     999901    1    3    3    0    0  0.62984953987E-01  0.99344027235E-01  0.10330810250E-01  0.88788685417E+00  0.88000000000E+00 0. -1.
        -11    1    4    4    0    0 -0.31810409006E-01 -0.72636797444E-01 -0.62667894185E-02  0.79545837319E-01  0.51100000000E-03 0. -1.
         11    1    4    4    0    0 -0.25563356928E-01 -0.44335250499E-01  0.11343746377E-01  0.52421764155E-01  0.51100000000E-03 0.  1.
</event>
<event>
 8    1  0.1166736E+005  0.1043930E+01  0.7957747E-01            NaN
         13   -1    0    0    0    0  0.00000000000E+00  0.00000000000E+00  0.74505805969E-08  0.10566000000E+00  0.10566000000E+00 0. -1.
     999900   -1    0    0    0    0 -0.00000000000E+00 -0.00000000000E+00 -0.74505805969E-08  0.93827000000E+00  0.93827000000E+00 0. -1.
     999902    2    1    2    0    0 -0.17892294786E-01 -0.16019847480E-01  0.82733835121E-02  0.10185288465E+01  0.10182120567E+01 0.  0.
     999903    2    3    3    0    0 -0.11284214614E-02  0.11106660951E+00 -0.57869454577E-01  0.12678512206E+00  0.19711121670E-01 0.  0.
         14    1    1    2    0    0  0.17892294786E-01  0.16019847480E-01 -0.82733835121E-02  0.25401153531E-01  0.00000000000E+00 0.  1.
     999901    1    3    3    0    0 -0.16763873325E-01 -0.12708645699E+00  0.66142838089E-01  0.89174372441E+00  0.88000000000E+00 0.  1.
        -11    1    4    4    0    0 -0.51484677317E-02  0.44258021813E-01 -0.13796865239E-01  0.46646477104E-01  0.51100000000E-03 0. -1.
         11    1    4    4    0    0  0.40200462703E-02  0.66808587702E-01 -0.44072589338E-01  0.80138644951E-01  0.51100000000E-03 0.  1.
</event>
<event>
 8    1  0.1166736E+005  0.1043930E+01  0.7957747E-01            NaN
         13   -1    0    0    0    0  0.00000000000E+00  0.00000000000E+00  0.74505805969E-08  0.10566000000E+00  0.10566000000E+00 0. -1.
     999900   -1    0    0    0    0 -0.00000000000E+00 -0.00000000000E+00 -0.74505805969E-08  0.93827000000E+00  0.93827000000E+00 0. -1.
     999902    2    1    2    0    0 -0.65162854627E-02 -0.23043510210E-01 -0.16937909200E-02  0.10199230371E+01  0.10196404599E+01 0.  0.
     999903    2    3    3    0    0  0.64836406162E-01  0.60102859729E-01 -0.90447127084E-01  0.12869821693E+00  0.23799893540E-01 0.  0.
         14    1    1    2    0    0  0.65162854627E-02  0.23043510210E-01  0.16937909200E-02  0.24006962880E-01  0.00000000000E+00 0.  1.
     999901    1    3    3    0    0 -0.71352691624E-01 -0.83146369939E-01  0.88753336164E-01  0.89122482019E+00  0.88000000000E+00 0. -1.
        -11    1    4    4    0    0  0.61671132012E-01  0.46429465966E-01 -0.80174582491E-01  0.11129801720E+00  0.51100000000E-03 0. -1.
         11    1    4    4    0    0  0.31652741499E-02  0.13673393762E-01 -0.10272544594E-01  0.17400199736E-01  0.51100000000E-03 0.  1.
</event>
<event>
 8    1  0.1166736E+005  0.1043930E+01  0.7957747E-01            NaN
         13   -1    0    0    0    0  0.00000000000E+00  0.00000000000E+00  0.74505805969E-08  0.10566000000E+00  0.10566000000E+00 0.  1.
     999900   -1    0    0    0    0 -0.00000000000E+00 -0.00000000000E+00 -0.74505805969E-08  0.93827000000E+00  0.93827000000E+00 0.  1.
     999902    2    1    2    0    0  0.18464990813E-01  0.12252879911E-01 -0.60308689786E-03  0.10217612683E+01  0.10215207471E+01 0.  0.
     999903    2    3    3    0    0  0.53243609197E-01 -0.72103971368E-01  0.94702236034E-01  0.13192491523E+00  0.20045077702E-01 0.  0.
         14    1    1    2    0    0 -0.18464990813E-01 -0.12252879911E-01  0.60308689786E-03  0.22168731711E-01  0.00000000000E+00 0.  1.
     999901    1    3    3    0    0 -0.34778618384E-01  0.84356851280E-01 -0.95305322931E-01  0.88983635306E+00  0.88000000000E+00 0.  1.
        -11    1    4    4    0    0  0.41524163004E-01 -0.61532313679E-01  0.86964564748E-01  0.11433974979E+00  0.51100000000E-03 0. -1.
         11    1    4    4    0    0  0.11719446193E-01 -0.10571657690E-01  0.77376712855E-02  0.17585165433E-01  0.51100000000E-03 0.  1.
</event>
<event>
 8    1  0.1166736E+005  0.1043930E+01  0.7957747E-01            NaN
         13   -1    0    0    0    0  0.00000000000E+00  0.00000000000E+00  0.74505805969E-08  0.10566000000E+00  0.10566000000E+00 0. -1.
     999900   -1    0    0    0    0 -0.00000000000E+00 -0.00000000000E+00 -0.74505805969E-08  0.93827000000E+00  0.93827000000E+00 0. -1.
     999902    2    1    2    0    0 -0.13235295475E-01  0.18905659046E-01  0.38348055624E-02  0.10205354980E+01  0.10202673179E+01 0.  0.
     999903    2    3    3    0    0 -0.49557367903E-01 -0.67040264998E-01 -0.97441651894E-01  0.12982627741E+00  0.20239983632E-01 0.  0.
         14    1    1    2    0    0  0.13235295475E-01 -0.18905659046E-01 -0.38348055624E-02  0.23394502004E-01  0.00000000000E+00 0. -1.
     999901    1    3    3    0    0  0.36322072428E-01  0.85945924044E-01  0.10127645746E+00  0.89070922059E+00  0.88000000000E+00 0.  1.
        -11    1    4    4    0    0 -0.18690397040E-01 -0.25453682646E-01 -0.52429295452E-01  0.61207132300E-01  0.51100000000E-03 0. -1.
         11    1    4    4    0    0 -0.30866970863E-01 -0.41586582352E-01 -0.45012356442E-01  0.68619145109E-01  0.51100000000E-03 0.  1.
</event>
<event>
 8    1  0.1166736E+005  0.1043930E+01  0.7957747E-01            NaN
         13   -1    0    0    0    0  0.00000000000E+00  0.00000000000E+00  0.74505805969E-08  0.10566000000E+00  0.10566000000E+00 0.  1.
     999900   -1    0    0    0    0 -0.00000000000E+00 -0.00000000000E+00 -0.74505805969E-08  0.93827000000E+00  0.93827000000E+00 0.  1.
     999902    2    1    2    0    0  0.89163555173E-02 -0.14638013793E-01 -0.28409314574E-01  0.10107507595E+01  0.10102060364E+01 0.  0.
     999903    2    3    3    0    0 -0.10729045608E+00 -0.41188947768E-01 -0.37620797475E-01  0.12266640173E+00  0.20590054075E-01 0.  0.
         14    1    1    2    0    0 -0.89163555173E-02  0.14638013793E-01  0.28409314574E-01  0.33179240469E-01  0.00000000000E+00 0.  1.
     999901    1    3    3    0    0  0.11620681160E+00  0.26550933975E-01  0.92114829006E-02  0.88808435780E+00  0.88000000000E+00 0.  1.
        -11    1    4    4    0    0 -0.73229943973E-01 -0.18810951897E-01 -0.19634780700E-01  0.78116978563E-01  0.51100000000E-03 0. -1.
         11    1    4    4    0    0 -0.34060512105E-01 -0.22377995871E-01 -0.17986016775E-01  0.44549423166E-01  0.51100000000E-03 0.  1.
</event>
<event>
 8    1  0.1166736E+005  0.1043930E+01  0.7957747E-01            NaN
         13   -1    0    0    0    0  0.00000000000E+00  0.00000000000E+00  0.74505805969E-08  0.10566000000E+00  0.10566000000E+00 0.  1.
     999900   -1    0    0    0    0 -0.00000000000E+00 -0.00000000000E+00 -0.74505805969E-08  0.93827000000E+00  0.93827000000E+00 0. -1.
     999902    2    1    2    0    0 -0.11935248310E-01  0.22029008318E-01  0.52060364254E-02  0.10183403502E+01  0.10180187811E+01 0.  0.
     999903    2    3    3    0    0 -0.89019236024E-01 -0.68992542294E-01 -0.57655549567E-01  0.12807160271E+00  0.19843834037E-01 0.  0.
         14    1    1    2    0    0  0.11935248310E-01 -0.22029008318E-01 -0.52060364254E-02  0.25589649762E-01  0.00000000000E+00 0. -1.
     999901    1    3    3    0    0  0.77083987714E-01  0.91021550612E-01  0.62861585992E-01  0.89026874753E+00  0.88000000000E+00 0.  1.
        -11    1    4    4    0    0 -0.26113685837E-01 -0.10414583722E-01 -0.18171400053E-01  0.33479083664E-01  0.51100000000E-03 0. -1.
         11    1    4    4    0    0 -0.62905550187E-01 -0.58577958572E-01 -0.39484149513E-01  0.94592519042E-01  0.51100000000E-03 0.  1.
</event>
<event>
 8    1  0.1166736E+005  0.1043930E+01  0.7957747E-01            NaN
         13   -1    0    0    0    0  0.00000000000E+00  0.00000000000E+00  0.74505805969E-08  0.10566000000E+00  0.10566000000E+00 0.  1.
     999900   -1    0    0    0    0 -0.00000000000E+00 -0.00000000000E+00 -0.74505805969E-08  0.93827000000E+00  0.93827000000E+00 0.  1.
     999902    2    1    2    0    0  0.56861150721E-03  0.71256543610E-02  0.22992969913E-01  0.10198514840E+01  0.10195671996E+01 0.  0.
     999903    2    3    3    0    0  0.12030517229E+00 -0.39619014535E-01  0.25257514114E-01  0.13051069651E+00  0.18764303662E-01 0.  0.
         14    1    1    2    0    0 -0.56861150721E-03 -0.71256543610E-02 -0.22992969913E-01  0.24078516036E-01  0.00000000000E+00 0. -1.
     999901    1    3    3    0    0 -0.11973656079E+00  0.46744668896E-01 -0.22645442018E-02  0.88934078745E+00  0.88000000000E+00 0.  1.
        -11    1    4    4    0    0  0.71260597623E-01 -0.29169643119E-01  0.77320285561E-02  0.77388540753E-01  0.51100000000E-03 0. -1.
         11    1    4    4    0    0  0.49044574672E-01 -0.10449371416E-01  0.17525485558E-01  0.53122155762E-01  0.51100000000E-03 0.  1.
</event>
<event>
 8    1  0.1166736E+005  0.1043930E+01  0.7957747E-01            NaN
         13   -1    0    0    0    0  0.00000000000E+00  0.00000000000E+00  0.74505805969E-08  0.10566000000E+00  0.10566000000E+00 0. -1.
     999900   -1    0    0    0    0 -0.00000000000E+00 -0.00000000000E+00 -0.74505805969E-08  0.93827000000E+00  0.93827000000E+00 0.  1.
     999902    2    1    2    0    0 -0.31481690142E-02 -0.22509791277E-01 -0.74672721402E-02  0.10200059154E+01  0.10197253089E+01 0.  0.
     999903    2    3    3    0    0  0.86550778222E-01 -0.22100218366E-01  0.91952906802E-01  0.12987646364E+00  0.20811099809E-01 0.  0.
         14    1    1    2    0    0  0.31481690142E-02  0.22509791277E-01  0.74672721402E-02  0.23924084615E-01  0.00000000000E+00 0. -1.
     999901    1    3    3    0    0 -0.89698947236E-01 -0.40957291109E-03 -0.99420178942E-01  0.89012945175E+00  0.88000000000E+00 0.  1.
        -11    1    4    4    0    0  0.18731723928E-01 -0.53600865956E-02  0.91165839819E-02  0.21516998725E-01  0.51100000000E-03 0.  1.
         11    1    4    4    0    0  0.67819054294E-01 -0.16740131770E-01  0.82836322820E-01  0.10835946491E+00  0.51100000000E-03 0. -1.
</event>
<event>
 8    1  0.1166736E+005  0.1043930E+01  0.7957747E-01            NaN
         13   -1    0    0    0    0  0.00000000000E+00  0.00000000000E+00  0.74505805969E-08  0.10566000000E+00  0.10566000000E+00 0.  1.
     999900   -1    0    0    0    0 -0.00000000000E+00 -0.00000000000E+00 -0.74505805969E-08  0.93827000000E+00  0.93827000000E+00 0.  1.
     999902    2    1    2    0    0 -0.16769897716E-01 -0.15347496118E-01 -0.55917303100E-02  0.10205196913E+01  0.10202511444E+01 0.  0.
     999903    2    3    3    0    0  0.82026022344E-01 -0.51836850292E-01  0.83679023093E-01  0.12975520265E+00  0.20467201067E-01 0.  0.
         14    1    1    2    0    0  0.16769897716E-01  0.15347496118E-01  0.55917303100E-02  0.23410308720E-01  0.00000000000E+00 0.  1.
     999901    1    3    3    0    0 -0.98795920061E-01  0.36489354174E-01 -0.89270753403E-01  0.89076448863E+00  0.88000000000E+00 0.  1.
        -11    1    4    4    0    0  0.38624711041E-01 -0.20312155761E-01  0.25190655457E-01  0.50391291093E-01  0.51100000000E-03 0.  1.
         11    1    4    4    0    0  0.43401311303E-01 -0.31524694531E-01  0.58488367636E-01  0.79363911558E-01  0.51100000000E-03 0. -1.
</event>
<event>
 8    1  0.1166736E+005  0.1043930E+01  0.7957747E-01            NaN
         13   -1    0    0    0    0  0.00000000000E+00  0.00000000000E+00  0.74505805969E-08  0.10566000000E+00  0.10566000000E+00 0.  1.
     999900   -1    0    0    0    0 -0.00000000000E+00 -0.00000000000E+00 -0.74505805969E-08  0.93827000000E+00  0.93827000000E+00 0.  1.
     999902    2    1    2    0    0  0.16777127824E-01 -0.14433176409E-01 -0.90276457031E-02  0.10200283895E+01  0.10197483162E+01 0.  0.
     999903    2    3    3    0    0  0.87095939871E-01  0.36455002920E-01  0.87942056456E-01  0.13045688292E+00  0.19248974698E-01 0.  0.
         14    1    1    2    0    0 -0.16777127824E-01  0.14433176409E-01  0.90276457031E-02  0.23901610536E-01  0.00000000000E+00 0.  1.
     999901    1    3    3    0    0 -0.70318812047E-01 -0.50888179329E-01 -0.96969702159E-01  0.88957150655E+00  0.88000000000E+00 0.  1.
        -11    1    4    4    0    0  0.31399413513E-01  0.50560058593E-02  0.22480852253E-01  0.38950432645E-01  0.51100000000E-03 0. -1.
         11    1    4    4    0    0  0.55696526358E-01  0.31398997061E-01  0.65461204203E-01  0.91506450273E-01  0.51100000000E-03 0.  1.
</event>
<event>
 8    1  0.1166736E+005  0.1043930E+01  0.7957747E-01            NaN
         13   -1    0    0    0    0  0.00000000000E+00  0.00000000000E+00  0.74505805969E-08  0.10566000000E+00  0.10566000000E+00 0.  1.
     999900   -1    0    0    0    0 -0.00000000000E+00 -0.00000000000E+00 -0.74505805969E-08  0.93827000000E+00  0.93827000000E+00 0. -1.
     999902    2    1    2    0    0  0.67801021285E-03  0.20918279657E-01  0.11013666847E-01  0.10202797362E+01  0.10200055907E+01 0.  0.
     999903    2    3    3    0    0 -0.10040875977E+00 -0.31581252857E-01 -0.71878072027E-01  0.12907505915E+00  0.20362197442E-01 0.  0.
         14    1    1    2    0    0 -0.67801021285E-03 -0.20918279657E-01 -0.11013666847E-01  0.23650263827E-01  0.00000000000E+00 0. -1.
     999901    1    3    3    0    0  0.10108676998E+00  0.52499532515E-01  0.82891738874E-01  0.89120467703E+00  0.88000000000E+00 0.  1.
        -11    1    4    4    0    0 -0.65636749062E-01 -0.30555447235E-01 -0.49607900312E-01  0.87766867766E-01  0.51100000000E-03 0.  1.
         11    1    4    4    0    0 -0.34772010709E-01 -0.10258056225E-02 -0.22270171715E-01  0.41308191380E-01  0.51100000000E-03 0. -1.
</event>
<event>
 8    1  0.1166736E+005  0.1043930E+01  0.7957747E-01            NaN
         13   -1    0    0    0    0  0.00000000000E+00  0.00000000000E+00  0.74505805969E-08  0.10566000000E+00  0.10566000000E+00 0. -1.
     999900   -1    0    0    0    0 -0.00000000000E+00 -0.00000000000E+00 -0.74505805969E-08  0.93827000000E+00  0.93827000000E+00 0.  1.
     999902    2    1    2    0    0 -0.70868257532E-02  0.83406439974E-02 -0.21009210592E-01  0.10202408385E+01  0.10199657799E+01 0.  0.
     999903    2    3    3    0    0  0.11800127072E+00  0.50586231711E-01 -0.58924202116E-03  0.13015730499E+00  0.21384810193E-01 0.  0.
         14    1    1    2    0    0  0.70868257532E-02 -0.83406439974E-02  0.21009210592E-01  0.23689161472E-01  0.00000000000E+00 0. -1.
     999901    1    3    3    0    0 -0.12508809647E+00 -0.42245587713E-01 -0.20419968570E-01  0.89008353354E+00  0.88000000000E+00 0.  1.
        -11    1    4    4    0    0  0.40512045192E-01  0.93472258208E-02  0.65255602925E-02  0.42088484105E-01  0.51100000000E-03 0.  1.
         11    1    4    4    0    0  0.77489225524E-01  0.41239005890E-01 -0.71148023136E-02  0.88068820885E-01  0.51100000000E-03 0. -1.
</event>
<event>
 8    1  0.1166736E+005  0.1043930E+01  0.7957747E-01            NaN
         13   -1    0    0    0    0  0.00000000000E+00  0.00000000000E+00  0.74505805969E-08  0.10566000000E+00  0.10566000000E+00 0. -1.
     999900   -1    0    0    0    0 -0.00000000000E+00 -0.00000000000E+00 -0.74505805969E-08  0.93827000000E+00  0.93827000000E+00 0. -1.
     999902    2    1    2    0    0 -0.22151371695E-01  0.35212083410E-02 -0.60987805052E-02  0.10206861341E+01  0.10204214360E+01 0.  0.
     999903    2    3    3    0    0 -0.66226463392E-01  0.58351373263E-01 -0.97551179180E-01  0.13315444349E+00  0.20568083214E-01 0.  0.
         14    1    1    2    0    0  0.22151371695E-01 -0.35212083410E-02  0.60987805052E-02  0.23243865853E-01  0.00000000000E+00 0. -1.
     999901    1    3    3    0    0  0.44075091697E-01 -0.54830164923E-01  0.91452398675E-01  0.88753169065E+00  0.88000000000E+00 0.  1.
        -11    1    4    4    0    0 -0.41339142796E-01  0.39283815465E-01 -0.76371988645E-01  0.95315710432E-01  0.51100000000E-03 0. -1.
         11    1    4    4    0    0 -0.24887320596E-01  0.19067557798E-01 -0.21179190535E-01  0.37838733060E-01  0.51100000000E-03 0.  1.
</event>
<event>
 8    1  0.1166736E+005  0.1043930E+01  0.7957747E-01            NaN
         13   -1    0    0    0    0  0.00000000000E+00  0.00000000000E+00  0.74505805969E-08  0.10566000000E+00  0.10566000000E+00 0. -1.
     999900   -1    0    0    0    0 -0.00000000000E+00 -0.00000000000E+00 -0.74505805969E-08  0.93827000000E+00  0.93827000000E+00 0.  1.
     999902    2    1    2    0    0 -0.13165318579E-01  0.18426645136E-01 -0.72469819658E-02  0.10201521613E+01  0.10198750152E+01 0.  0.
     999903    2    3    3    0    0  0.63993366010E-01  0.86227863752E-01  0.71844240516E-01  0.13065461253E+00  0.19458609875E-01 0.  0.
         14    1    1    2    0    0  0.13165318579E-01 -0.18426645136E-01  0.72469819658E-02  0.23777838671E-01  0.00000000000E+00 0. -1.
     999901    1    3    3    0    0 -0.77158684590E-01 -0.67801218615E-01 -0.79091222482E-01  0.88949754880E+00  0.88000000000E+00 0. -1.
        -11    1    4    4    0    0  0.24342158029E-01  0.37956132253E-01  0.41161703130E-01  0.61055348322E-01  0.51100000000E-03 0. -1.
         11    1    4    4    0    0  0.39651207981E-01  0.48271731499E-01  0.30682537387E-01  0.69599264204E-01  0.51100000000E-03 0.  1.
</event>
<event>
 8    1  0.1166736E+005  0.1043930E+01  0.7957747E-01            NaN
         13   -1    0    0    0    0  0.00000000000E+00  0.00000000000E+00  0.74505805969E-08  0.10566000000E+00  0.10566000000E+00 0.  1.
     999900   -1    0    0    0    0 -0.00000000000E+00 -0.00000000000E+00 -0.74505805969E-08  0.93827000000E+00  0.93827000000E+00 0.  1.
     999902    2    1    2    0    0  0.11121145825E-01  0.16847173777E-03  0.21069436068E-01  0.10201050256E+01  0.10198267666E+01 0.  0.
     999903    2    3    3    0    0 -0.79839141184E-01 -0.14400200106E-01 -0.96310469663E-01  0.12754462864E+00  0.20255159857E-01 0.  0.
         14    1    1    2    0    0 -0.11121145825E-01 -0.16847173777E-03 -0.21069436068E-01  0.23824974364E-01  0.00000000000E+00 0. -1.
     999901    1    3    3    0    0  0.90960287009E-01  0.14568671844E-01  0.11737990573E+00  0.89256039699E+00  0.88000000000E+00 0.  1.
        -11    1    4    4    0    0 -0.70186301649E-01 -0.14605406162E-01 -0.92781260252E-01  0.11725211385E+00  0.51100000000E-03 0.  1.
         11    1    4    4    0    0 -0.96528395346E-02  0.20520605544E-03 -0.35292094113E-02  0.10292514789E-01  0.51100000000E-03 0. -1.
</event>
<event>
 8    1  0.1166736E+005  0.1043930E+01  0.7957747E-01            NaN
         13   -1    0    0    0    0  0.00000000000E+00  0.00000000000E+00  0.74505805969E-08  0.10566000000E+00  0.10566000000E+00 0.  1.
     999900   -1    0    0    0    0 -0.00000000000E+00 -0.00000000000E+00 -0.74505805969E-08  0.93827000000E+00  0.93827000000E+00 0. -1.
     999902    2    1    2    0    0  0.17707427439E-01 -0.43825584681E-02 -0.15167653786E-01  0.10202062244E+01  0.10199303520E+01 0.  0.
     999903    2    3    3    0    0 -0.83071377710E-01  0.71081908392E-01  0.62975177216E-01  0.12781754491E+00  0.20444078500E-01 0.  0.
         14    1    1    2    0    0 -0.17707427439E-01  0.43825584681E-02  0.15167653786E-01  0.23723775556E-01  0.00000000000E+00 0.  1.
     999901    1    3    3    0    0  0.10077880515E+00 -0.75464466861E-01 -0.78142831002E-01  0.89238867954E+00  0.88000000000E+00 0.  1.
        -11    1    4    4    0    0 -0.63929699781E-01  0.59138547121E-01  0.40781724153E-01  0.96165401344E-01  0.51100000000E-03 0.  1.
         11    1    4    4    0    0 -0.19141677929E-01  0.11943361271E-01  0.22193453063E-01  0.31652143565E-01  0.51100000000E-03 0. -1.
</event>
<event>
 8    1  0.1166736E+005  0.1043930E+01  0.7957747E-01            NaN
         13   -1    0    0    0    0  0.00000000000E+00  0.00000000000E+00  0.74505805969E-08  0.10566000000E+00  0.10566000000E+00 0. -1.
     999900   -1    0    0    0    0 -0.00000000000E+00 -0.00000000000E+00 -0.74505805969E-08  0.93827000000E+00  0.93827000000E+00 0. -1.
     999902    2    1    2    0    0  0.31606345124E-02  0.18120925820E-01 -0.14562579265E-01  0.10204688347E+01  0.10201991062E+01 0.  0.
     999903    2    3    3    0    0 -0.24270711315E-02  0.12120999146E+00 -0.52649068013E-01  0.13361531886E+00  0.19579999142E-01 0.  0.
         14    1    1    2    0    0 -0.31606345124E-02 -0.18120925820E-01  0.14562579265E-01  0.23461165315E-01  0.00000000000E+00 0. -1.
     999901    1    3    3    0    0  0.55877056439E-02 -0.10308906564E+00  0.38086488748E-01  0.88685351583E+00  0.88000000000E+00 0. -1.
        -11    1    4    4    0    0  0.75747018249E-02  0.47449311656E-01 -0.25353303617E-01  0.54331063027E-01  0.51100000000E-03 0.  1.
         11    1    4    4    0    0 -0.10001772956E-01  0.73760679806E-01 -0.27295764396E-01  0.79284255831E-01  0.51100000000E-03 0. -1.
</event>
<event>
 8    1  0.1166736E+005  0.1043930E+01  0.7957747E-01            NaN
         13   -1    0    0    0    0  0.00000000000E+00  0.00000000000E+00  0.74505805969E-08  0.10566000000E+00  0.10566000000E+00 0.  1.
     999900   -1    0    0    0    0 -0.00000000000E+00 -0.00000000000E+00 -0.74505805969E-08  0.93827000000E+00  0.93827000000E+00 0. -1.
     999902    2    1    2    0    0  0.23394935888E-01  0.20037272808E-02 -0.11632018304E-01  0.10177261492E+01  0.10173887521E+01 0.  0.
     999903    2    3    3    0    0  0.64106423559E-01  0.28336396750E-01  0.10595292782E+00  0.12858214832E+00  0.19868594050E-01 0.  0.
         14    1    1    2    0    0 -0.23394935888E-01 -0.20037272808E-02  0.11632018304E-01  0.26203850825E-01  0.00000000000E+00 0.  1.
     999901    1    3    3    0    0 -0.40711487671E-01 -0.26332669469E-01 -0.11758494612E+00  0.88914400086E+00  0.88000000000E+00 0. -1.
        -11    1    4    4    0    0  0.29504723181E-01  0.22042858249E-01  0.63932549081E-01  0.73783793903E-01  0.51100000000E-03 0. -1.
         11    1    4    4    0    0  0.34601700378E-01  0.62935385006E-02  0.42020378739E-01  0.54798354413E-01  0.51100000000E-03 0.  1.
</event>
<event>
 8    1  0.1166736E+005  0.1043930E+01  0.7957747E-01            NaN
         13   -1    0    0    0    0  0.00000000000E+00  0.00000000000E+00  0.74505805969E-08  0.10566000000E+00  0.10566000000E+00 0.  1.
     999900   -1    0    0    0    0 -0.00000000000E+00 -0.00000000000E+00 -0.74505805969E-08  0.93827000000E+00  0.93827000000E+00 0. -1.
     999902    2    1    2    0    0 -0.23042295617E-01 -0.43800011894E-02 -0.56672887939E-04  0.10204750430E+01  0.10202054589E+01 0.  0.
     999903    2    3    3    0    0 -0.86308690392E-01 -0.51639559844E-01 -0.84756462283E-01  0.13288833908E+00  0.18968884685E-01 0.  0.
         14    1    1    2    0    0  0.23042295617E-01  0.43800011894E-02  0.56672887939E-04  0.23454957035E-01  0.00000000000E+00 0. -1.
     999901    1    3    3    0    0  0.63266394775E-01  0.47259558655E-01  0.84699789395E-01  0.88758670389E+00  0.88000000000E+00 0.  1.
        -11    1    4    4    0    0 -0.38118886052E-01 -0.18631120644E-01 -0.24640768287E-01  0.49067267226E-01  0.51100000000E-03 0. -1.
         11    1    4    4    0    0 -0.48189804339E-01 -0.33008439200E-01 -0.60115693997E-01  0.83821071852E-01  0.51100000000E-03 0.  1.
</event>
<event>
 8    1  0.1166736E+005  0.1043930E+01  0.7957747E-01            NaN
         13   -1    0    0    0    0  0.00000000000E+00  0.00000000000E+00  0.74505805969E-08  0.10566000000E+00  0.10566000000E+00 0. -1.
     999900   -1    0    0    0    0 -0.00000000000E+00 -0.00000000000E+00 -0.74505805969E-08  0.93827000000E+00  0.93827000000E+00 0.  1.
     999902    2    1    2    0    0  0.10195661620E-01  0.11567085621E-01  0.13045001414E-01  0.10237329446E+01  0.10235336930E+01 0.  0.
     999903    2    3    3    0    0 -0.43389215692E-01  0.82924356384E-01 -0.92177570914E-01  0.13298326656E+00  0.20706802887E-01 0.  0.
         14    1    1    2    0    0 -0.10195661620E-01 -0.11567085621E-01 -0.13045001414E-01  0.20197055417E-01  0.00000000000E+00 0. -1.
     999901    1    3    3    0    0  0.53584877312E-01 -0.71357270762E-01  0.10522257233E+00  0.89074967802E+00  0.88000000000E+00 0. -1.
        -11    1    4    4    0    0 -0.15990257113E-01  0.52104636313E-01 -0.55567601959E-01  0.77837015335E-01  0.51100000000E-03 0.  1.
         11    1    4    4    0    0 -0.27398958579E-01  0.30819720071E-01 -0.36609968955E-01  0.55146251226E-01  0.51100000000E-03 0. -1.
</event>
<event>
 8    1  0.1166736E+005  0.1043930E+01  0.7957747E-01            NaN
         13   -1    0    0    0    0  0.00000000000E+00  0.00000000000E+00  0.74505805969E-08  0.10566000000E+00  0.10566000000E+00 0. -1.
     999900   -1    0    0    0    0 -0.00000000000E+00 -0.00000000000E+00 -0.74505805969E-08  0.93827000000E+00  0.93827000000E+00 0. -1.
     999902    2    1    2    0    0  0.21032325688E-01 -0.11213902900E-01  0.14508780704E-02  0.10200508168E+01  0.10197712751E+01 0.  0.
     999903    2    3    3    0    0  0.10540103029E+00 -0.35562326980E-02 -0.77455433458E-01  0.13246818730E+00  0.20650726327E-01 0.  0.
         14    1    1    2    0    0 -0.21032325688E-01  0.11213902900E-01 -0.14508780704E-02  0.23879183179E-01  0.00000000000E+00 0. -1.
     999901    1    3    3    0    0 -0.84368704598E-01 -0.76576702018E-02  0.78906311529E-01  0.88758262952E+00  0.88000000000E+00 0.  1.
        -11    1    4    4    0    0  0.12973374277E-01 -0.13880302116E-02 -0.19102930403E-01  0.23139104109E-01  0.51100000000E-03 0. -1.
         11    1    4    4    0    0  0.92427656010E-01 -0.21682024864E-02 -0.58352503055E-01  0.10932908319E+00  0.51100000000E-03 0.  1.
</event>
<event>
 8    1  0.1166736E+005  0.1043930E+01  0.7957747E-01            NaN
         13   -1    0    0    0    0  0.00000000000E+00  0.00000000000E+00  0.74505805969E-08  0.10566000000E+00  0.10566000000E+00 0.  1.
     999900   -1    0    0    0    0 -0.00000000000E+00 -0.00000000000E+00 -0.74505805969E-08  0.93827000000E+00  0.93827000000E+00 0.  1.
     999902    2    1    2    0    0  0.23407644915E-01 -0.11364621140E-02  0.26280610957E-02  0.10203478862E+01  0.10200753368E+01 0.  0.
     999903    2    3    3    0    0 -0.10046618427E+00  0.75640868369E-01 -0.13320839979E-01  0.12821905498E+00  0.21158594757E-01 0.  0.
         14    1    1    2    0    0 -0.23407644915E-01  0.11364621140E-02 -0.26280610957E-02  0.23582113809E-01  0.00000000000E+00 0.  1.
     999901    1    3    3    0    0  0.12387382919E+00 -0.76777330483E-01  0.15948901075E-01  0.89212883121E+00  0.88000000000E+00 0. -1.
        -11    1    4    4    0    0 -0.57854445375E-01  0.30683438550E-01 -0.92615863969E-02  0.66141124533E-01  0.51100000000E-03 0.  1.
         11    1    4    4    0    0 -0.42611738897E-01  0.44957429819E-01 -0.40592535824E-02  0.62077930446E-01  0.51100000000E-03 0. -1.
</event>
<event>
 8    1  0.1166736E+005  0.1043930E+01  0.7957747E-01            NaN
         13   -1    0    0    0    0  0.00000000000E+00  0.00000000000E+00  0.74505805969E-08  0.10566000000E+00  0.10566000000E+00 0. -1.
     999900   -1    0    0    0    0 -0.00000000000E+00 -0.00000000000E+00 -0.74505805969E-08  0.93827000000E+00  0.93827000000E+00 0.  1.
     999902    2    1    2    0    0  0.11240383216E-01 -0.79973201957E-02  0.19886185658E-01  0.10197274438E+01  0.10194401875E+01 0.  0.
     999903    2    3    3    0    0  0.83201360804E-01 -0.63990431757E-01 -0.74157779180E-01  0.13003205879E+00  0.19791874705E-01 0.  0.
         14    1    1    2    0    0 -0.11240383216E-01  0.79973201957E-02 -0.19886185658E-01  0.24202556171E-01  0.00000000000E+00 0.  1.
     999901    1    3    3    0    0 -0.71960977587E-01  0.55993111561E-01  0.94043964838E-01  0.88969538504E+00  0.88000000000E+00 0. -1.
        -11    1    4    4    0    0  0.53948143165E-01 -0.36996206834E-01 -0.56678307977E-01  0.86555260887E-01  0.51100000000E-03 0.  1.
         11    1    4    4    0    0  0.29253217639E-01 -0.26994224923E-01 -0.17479471203E-01  0.43476797904E-01  0.51100000000E-03 0. -1.
</event>
<event>
 7    1  0.1166736E+005  0.1043930E+01  0.7957747E-01            NaN
         13   -1    0    0    0    0  0.00000000000E+00  0.00000000000E+00  0.74505805969E-08  0.10566000000E+00  0.10566000000E+00 0.  1.
     999900   -1    0    0    0    0 -0.00000000000E+00 -0.00000000000E+00 -0.74505805969E-08  0.93827000000E+00  0.93827000000E+00 0.  1.
     999903    2    1    2    0    0 -0.26758447229E-01 -0.10281036821E+00  0.30423688251E-01  0.11230842375E+00  0.20039833539E-01 0.  0.
         14    1    1    2    0    0 -0.34138729104E-01 -0.18981886964E-01 -0.12344537221E-01  0.40965259144E-01  0.00000000000E+00 0.  1.
     999901    1    1    2    0    0  0.60897176333E-01  0.12179225517E+00 -0.18079151030E-01  0.89065631711E+00  0.88000000000E+00 0.  1.
        -11    1    3    3    0    0 -0.11962541869E-01 -0.45772578212E-01  0.23940871548E-01  0.53025067427E-01  0.51100000000E-03 0.  1.
         11    1    3    3    0    0 -0.14795905360E-01 -0.57037789996E-01  0.64828167038E-02  0.59283356319E-01  0.51100000000E-03 0. -1.
</event>
<event>
 8    1  0.1166736E+005  0.1043930E+01  0.7957747E-01            NaN
         13   -1    0    0    0    0  0.00000000000E+00  0.00000000000E+00  0.74505805969E-08  0.10566000000E+00  0.10566000000E+00 0. -1.
     999900   -1    0    0    0    0 -0.00000000000E+00 -0.00000000000E+00 -0.74505805969E-08  0.93827000000E+00  0.93827000000E+00 0. -1.
     999902    2    1    2    0    0  0.58828788953E-02 -0.99626169842E-02 -0.20161903253E-01  0.10206842618E+01  0.10204195206E+01 0.  0.
     999903    2    3    3    0    0 -0.80908471094E-01  0.98615932381E-01  0.84964059744E-02  0.12931265664E+00  0.19449715639E-01 0.  0.
         14    1    1    2    0    0 -0.58828788953E-02  0.99626169842E-02  0.20161903253E-01  0.23245738191E-01  0.00000000000E+00 0. -1.
     999901    1    3    3    0    0  0.86791349990E-01 -0.10857854936E+00 -0.28658309227E-01  0.89137160517E+00  0.88000000000E+00 0. -1.
        -11    1    4    4    0    0 -0.68961517826E-01  0.80616253431E-01 -0.92741376788E-05  0.10608926649E+00  0.51100000000E-03 0. -1.
         11    1    4    4    0    0 -0.11946953268E-01  0.17999678949E-01  0.85056801121E-02  0.23223390145E-01  0.51100000000E-03 0.  1.
</event>
<event>
 8    1  0.1166736E+005  0.1043930E+01  0.7957747E-01            NaN
         13   -1    0    0    0    0  0.00000000000E+00  0.00000000000E+00  0.74505805969E-08  0.10566000000E+00  0.10566000000E+00 0. -1.
     999900   -1    0    0    0    0 -0.00000000000E+00 -0.00000000000E+00 -0.74505805969E-08  0.93827000000E+00  0.93827000000E+00 0. -1.
     999902    2    1    2    0    0  0.22840314281E-02 -0.19437437305E-01 -0.13019713831E-01  0.10204237515E+01  0.10201529733E+01 0.  0.
     999903    2    3    3    0    0  0.29299473018E-01 -0.51260391288E-02  0.12401379196E+00  0.12929366456E+00  0.21276646898E-01 0.  0.
         14    1    1    2    0    0 -0.22840314281E-02  0.19437437305E-01  0.13019713831E-01  0.23506248463E-01  0.00000000000E+00 0.  1.
     999901    1    3    3    0    0 -0.27015441590E-01 -0.14311398176E-01 -0.13703350579E+00  0.89113008697E+00  0.88000000000E+00 0. -1.
        -11    1    4    4    0    0  0.10378346017E-01 -0.12060845958E-01  0.44410675871E-01  0.47177784216E-01  0.51100000000E-03 0. -1.
         11    1    4    4    0    0  0.18921127001E-01  0.69348068295E-02  0.79603116090E-01  0.82115880346E-01  0.51100000000E-03 0.  1.
</event>
<event>
 8    1  0.1166736E+005  0.1043930E+01  0.7957747E-01            NaN
         13   -1    0    0    0    0  0.00000000000E+00  0.00000000000E+00  0.74505805969E-08  0.10566000000E+00  0.10566000000E+00 0. -1.
     999900   -1    0    0    0    0 -0.00000000000E+00 -0.00000000000E+00 -0.74505805969E-08  0.93827000000E+00  0.93827000000E+00 0. -1.
     999902    2    1    2    0    0  0.11887499623E-01  0.20281977266E-01 -0.23344230065E-02  0.10203054200E+01  0.10200318766E+01 0.  0.
     999903    2    3    3    0    0 -0.52569984485E-01 -0.42137582936E-03 -0.11765304413E+00  0.13020330201E+00  0.18624721056E-01 0.  0.
         14    1    1    2    0    0 -0.11887499623E-01 -0.20281977266E-01  0.23344230065E-02  0.23624579994E-01  0.00000000000E+00 0. -1.
     999901    1    3    3    0    0  0.64457484109E-01  0.20703353096E-01  0.11531862112E+00  0.89010211800E+00  0.88000000000E+00 0.  1.
        -11    1    4    4    0    0 -0.40727179959E-01  0.47071311212E-02 -0.73074447371E-01  0.83791385300E-01  0.51100000000E-03 0. -1.
         11    1    4    4    0    0 -0.11842804526E-01 -0.51285069505E-02 -0.44578596758E-01  0.46411916708E-01  0.51100000000E-03 0.  1.
</event>
<event>
 8    1  0.1166736E+005  0.1043930E+01  0.7957747E-01            NaN
         13   -1    0    0    0    0  0.00000000000E+00  0.00000000000E+00  0.74505805969E-08  0.10566000000E+00  0.10566000000E+00 0.  1.
     999900   -1    0    0    0    0 -0.00000000000E+00 -0.00000000000E+00 -0.74505805969E-08  0.93827000000E+00  0.93827000000E+00 0. -1.
     999902    2    1    2    0    0 -0.89701827404E-02  0.19747947077E-01 -0.86143983702E-02  0.10205921884E+01  0.10203253214E+01 0.  0.
     999903    2    3    3    0    0 -0.28560970285E-01  0.57360343175E-01 -0.11514224007E+00  0.13315392441E+00  0.19138812492E-01 0.  0.
         14    1    1    2    0    0  0.89701827404E-02 -0.19747947077E-01  0.86143983702E-02  0.23337811625E-01  0.00000000000E+00 0.  1.
     999901    1    3    3    0    0  0.19590787545E-01 -0.37612396099E-01  0.10652784170E+00  0.88743826397E+00  0.88000000000E+00 0.  1.
        -11    1    4    4    0    0 -0.17140937203E-01  0.40427294896E-01 -0.60037756114E-01  0.74383944376E-01  0.51100000000E-03 0. -1.
         11    1    4    4    0    0 -0.11420033082E-01  0.16933048280E-01 -0.55104483958E-01  0.58769980031E-01  0.51100000000E-03 0.  1.
</event>
<event>
 8    1  0.1166736E+005  0.1043930E+01  0.7957747E-01            NaN
         13   -1    0    0    0    0  0.00000000000E+00  0.00000000000E+00  0.74505805969E-08  0.10566000000E+00  0.10566000000E+00 0. -1.
     999900   -1    0    0    0    0 -0.00000000000E+00 -0.00000000000E+00 -0.74505805969E-08  0.93827000000E+00  0.93827000000E+00 0. -1.
     999902    2    1    2    0    0 -0.52347541679E-03  0.15222693353E-01 -0.19216880508E-01  0.10194087252E+01  0.10191137602E+01 0.  0.
     999903    2    3    3    0    0  0.15315330954E-04  0.13743495871E-01  0.12512634743E+00  0.12764785720E+00  0.21177552109E-01 0.  0.
         14    1    1    2    0    0  0.52347541679E-03 -0.15222693353E-01  0.19216880508E-01  0.24521274761E-01  0.00000000000E+00 0. -1.
     999901    1    3    3    0    0 -0.53879074774E-03  0.14791974817E-02 -0.14434322793E+00  0.89176086804E+00  0.88000000000E+00 0. -1.
        -11    1    4    4    0    0  0.95453633423E-02  0.11142770573E-01  0.88491431963E-01  0.89701003056E-01  0.51100000000E-03 0.  1.
         11    1    4    4    0    0 -0.95300480113E-02  0.26007252979E-02  0.36634915464E-01  0.37946854141E-01  0.51100000000E-03 0. -1.
</event>
<event>
 8    1  0.1166736E+005  0.1043930E+01  0.7957747E-01            NaN
         13   -1    0    0    0    0  0.00000000000E+00  0.00000000000E+00  0.74505805969E-08  0.10566000000E+00  0.10566000000E+00 0.  1.
     999900   -1    0    0    0    0 -0.00000000000E+00 -0.00000000000E+00 -0.74505805969E-08  0.93827000000E+00  0.93827000000E+00 0. -1.
     999902    2    1    2    0    0  0.56968549854E-02  0.17464423825E-01  0.14728981239E-01  0.10203842330E+01  0.10201125329E+01 0.  0.
     999903    2    3    3    0    0 -0.45333393795E-01  0.10440866974E+00 -0.62269999320E-01  0.13128793269E+00  0.20066926632E-01 0.  0.
         14    1    1    2    0    0 -0.56968549854E-02 -0.17464423825E-01 -0.14728981239E-01  0.23545767021E-01  0.00000000000E+00 0. -1.
     999901    1    3    3    0    0  0.51030248780E-01 -0.86944245913E-01  0.76998980559E-01  0.88909630029E+00  0.88000000000E+00 0.  1.
        -11    1    4    4    0    0 -0.24683331179E-01  0.76111301052E-01 -0.37406592532E-01  0.88327296301E-01  0.51100000000E-03 0. -1.
         11    1    4    4    0    0 -0.20650062616E-01  0.28297368685E-01 -0.24863406788E-01  0.42960636385E-01  0.51100000000E-03 0.  1.
</event>
<event>
 8    1  0.1166736E+005  0.1043930E+01  0.7957747E-01            NaN
         13   -1    0    0    0    0  0.00000000000E+00  0.00000000000E+00  0.74505805969E-08  0.10566000000E+00  0.10566000000E+00 0. -1.
     999900   -1    0    0    0    0 -0.00000000000E+00 -0.00000000000E+00 -0.74505805969E-08  0.93827000000E+00  0.93827000000E+00 0. -1.
     999902    2    1    2    0    0 -0.62747127226E-02  0.10700156275E-01 -0.20079510252E-01  0.10203280489E+01  0.10200550354E+01 0.  0.
     999903    2    3    3    0    0  0.42866221408E-01 -0.60013372666E-01  0.10228265341E+00  0.12769837558E+00  0.20149841205E-01 0.  0.
         14    1    1    2    0    0  0.62747127226E-02 -0.10700156275E-01  0.20079510252E-01  0.23601951106E-01  0.00000000000E+00 0.  1.
     999901    1    3    3    0    0 -0.49140934131E-01  0.70713528941E-01 -0.12236216366E+00  0.89262967331E+00  0.88000000000E+00 0. -1.
        -11    1    4    4    0    0  0.54808881770E-02 -0.17151020219E-01  0.36735190373E-01  0.40913725845E-01  0.51100000000E-03 0.  1.
         11    1    4    4    0    0  0.37385333231E-01 -0.42862352446E-01  0.65547463039E-01  0.86784649736E-01  0.51100000000E-03 0. -1.
</event>
<event>
 8    1  0.1166736E+005  0.1043930E+01  0.7957747E-01            NaN
         13   -1    0    0    0    0  0.00000000000E+00  0.00000000000E+00  0.74505805969E-08  0.10566000000E+00  0.10566000000E+00 0.  1.
     999900   -1    0    0    0    0 -0.00000000000E+00 -0.00000000000E+00 -0.74505805969E-08  0.93827000000E+00  0.93827000000E+00 0.  1.
     999902    2    1    2    0    0  0.11562650784E-01 -0.14720665347E-01 -0.14795824322E-01  0.10200697968E+01  0.10197907045E+01 0.  0.
     999903    2    3    3    0    0  0.21823003043E-02 -0.85141113574E-01 -0.10172288781E+00  0.13293770689E+00  0.84330513003E-02 0.  0.
         14    1    1    2    0    0 -0.11562650784E-01  0.14720665347E-01  0.14795824322E-01  0.23860203242E-01  0.00000000000E+00 0.  1.
     999901    1    3    3    0    0  0.93803504799E-02  0.70420448227E-01  0.86927063487E-01  0.88713208987E+00  0.88000000000E+00 0. -1.
        -11    1    4    4    0    0  0.41433289883E-02 -0.21044319628E-01 -0.25076734527E-01  0.33002034774E-01  0.51100000000E-03 0. -1.
         11    1    4    4    0    0 -0.19610286839E-02 -0.64096793946E-01 -0.76646153282E-01  0.99935672118E-01  0.51100000000E-03 0.  1.
</event>
<event>
 8    1  0.1166736E+005  0.1043930E+01  0.7957747E-01            NaN
         13   -1    0    0    0    0  0.00000000000E+00  0.00000000000E+00  0.74505805969E-08  0.10566000000E+00  0.10566000000E+00 0. -1.
     999900   -1    0    0    0    0 -0.00000000000E+00 -0.00000000000E+00 -0.74505805969E-08  0.93827000000E+00  0.93827000000E+00 0.  1.
     999902    2    1    2    0    0 -0.23103884332E-01 -0.51149309942E-02 -0.38700504472E-02  0.10199523170E+01  0.10196704368E+01 0.  0.
     999903    2    3    3    0    0  0.10205024453E+00  0.18803148112E-01  0.71430146622E-01  0.12759266411E+00  0.20243796593E-01 0.  0.
         14    1    1    2    0    0  0.23103884332E-01  0.51149309942E-02  0.38700504472E-02  0.23977682973E-01  0.00000000000E+00 0.  1.
     999901    1    3    3    0    0 -0.12515412886E+00 -0.23918079106E-01 -0.75300197069E-01  0.89235965292E+00  0.88000000000E+00 0.  1.
        -11    1    4    4    0    0  0.42513949461E-01  0.15477658854E-01  0.22913238692E-01  0.50717565505E-01  0.51100000000E-03 0.  1.
         11    1    4    4    0    0  0.59536295067E-01  0.33254892581E-02  0.48516907930E-01  0.76875098603E-01  0.51100000000E-03 0. -1.
</event>
<event>
 8    1  0.1166736E+005  0.1043930E+01  0.7957747E-01            NaN
         13   -1    0    0    0    0  0.00000000000E+00  0.00000000000E+00  0.74505805969E-08  0.10566000000E+00  0.10566000000E+00 0. -1.
     999900   -1    0    0    0    0 -0.00000000000E+00 -0.00000000000E+00 -0.74505805969E-08  0.93827000000E+00  0.93827000000E+00 0. -1.
     999902    2    1    2    0    0  0.20694858541E-01 -0.23701694622E-03  0.11334227164E-01  0.10203334313E+01  0.10200605438E+01 0.  0.
     999903    2    3    3    0    0 -0.12561412781E+00 -0.27035492617E-02  0.15530499286E-01  0.12824038016E+00  0.20449459890E-01 0.  0.
         14    1    1    2    0    0 -0.20694858541E-01  0.23701694622E-03 -0.11334227164E-01  0.23596568659E-01  0.00000000000E+00 0. -1.
     999901    1    3    3    0    0  0.14630898636E+00  0.24665323155E-02 -0.41962721218E-02  0.89209305118E+00  0.88000000000E+00 0. -1.
        -11    1    4    4    0    0 -0.96803083582E-01 -0.78845207652E-02  0.18293113435E-01  0.98832695900E-01  0.51100000000E-03 0. -1.
         11    1    4    4    0    0 -0.28811044232E-01  0.51809715035E-02 -0.27626141497E-02  0.29407684258E-01  0.51100000000E-03 0.  1.
</event>
<event>
 8    1  0.1166736E+005  0.1043930E+01  0.7957747E-01            NaN
         13   -1    0    0    0    0  0.00000000000E+00  0.00000000000E+00  0.74505805969E-08  0.10566000000E+00  0.10566000000E+00 0. -1.
     999900   -1    0    0    0    0 -0.00000000000E+00 -0.00000000000E+00 -0.74505805969E-08  0.93827000000E+00  0.93827000000E+00 0. -1.
     999902    2    1    2    0    0 -0.17028834991E-01  0.14269497206E-01  0.59868869712E-02  0.10209203805E+01  0.10206610509E+01 0.  0.
     999903    2    3    3    0    0  0.59489905243E-01 -0.69126823191E-01 -0.89558631348E-01  0.12854209197E+00  0.13592440837E-01 0.  0.
         14    1    1    2    0    0  0.17028834991E-01 -0.14269497206E-01 -0.59868869712E-02  0.23009619451E-01  0.00000000000E+00 0. -1.
     999901    1    3    3    0    0 -0.76518740234E-01  0.83396320397E-01  0.95545518319E-01  0.89237828858E+00  0.88000000000E+00 0.  1.
        -11    1    4    4    0    0  0.32764027995E-01 -0.31773025273E-01 -0.37126104869E-01  0.58835494807E-01  0.51100000000E-03 0. -1.
         11    1    4    4    0    0  0.26725877248E-01 -0.37353797917E-01 -0.52432526479E-01  0.69706597159E-01  0.51100000000E-03 0.  1.
</event>
<event>
 8    1  0.1166736E+005  0.1043930E+01  0.7957747E-01            NaN
         13   -1    0    0    0    0  0.00000000000E+00  0.00000000000E+00  0.74505805969E-08  0.10566000000E+00  0.10566000000E+00 0.  1.
     999900   -1    0    0    0    0 -0.00000000000E+00 -0.00000000000E+00 -0.74505805969E-08  0.93827000000E+00  0.93827000000E+00 0. -1.
     999902    2    1    2    0    0  0.12461923479E-01 -0.14056489324E-01 -0.13956949383E-01  0.10205274176E+01  0.10202590500E+01 0.  0.
     999903    2    3    3    0    0 -0.25354703247E-01  0.72152878782E-01  0.10082579822E+00  0.12809409705E+00  0.19833235226E-01 0.  0.
         14    1    1    2    0    0 -0.12461923479E-01  0.14056489324E-01  0.13956949383E-01  0.23402582443E-01  0.00000000000E+00 0.  1.
     999901    1    3    3    0    0  0.37816626726E-01 -0.86209368106E-01 -0.11478274760E+00  0.89243332051E+00  0.88000000000E+00 0. -1.
        -11    1    4    4    0    0  0.37854471525E-03  0.16818969484E-01  0.13598385111E-01  0.21637888743E-01  0.51100000000E-03 0. -1.
         11    1    4    4    0    0 -0.25733247963E-01  0.55333909298E-01  0.87227413106E-01  0.10645620831E+00  0.51100000000E-03 0.  1.
</event>
<event>
 8    1  0.1166736E+005  0.1043930E+01  0.7957747E-01            NaN
         13   -1    0    0    0    0  0.00000000000E+00  0.00000000000E+00  0.74505805969E-08  0.10566000000E+00  0.10566000000E+00 0.  1.
     999900   -1    0    0    0    0 -0.00000000000E+00 -0.00000000000E+00 -0.74505805969E-08  0.93827000000E+00  0.93827000000E+00 0.  1.
     999902    2    1    2    0    0 -0.11108701560E-01 -0.16296906876E-01 -0.12254990545E-01  0.10207098101E+01  0.10204456572E+01 0.  0.
     999903    2    3    3    0    0 -0.37174344411E-01 -0.34896112907E-01 -0.12154645370E+00  0.13337110811E+00  0.20362747652E-01 0.  0.
         14    1    1    2    0    0  0.11108701560E-01  0.16296906876E-01  0.12254990545E-01  0.23220189865E-01  0.00000000000E+00 0.  1.
     999901    1    3    3    0    0  0.26065642851E-01  0.18599206031E-01  0.10929146315E+00  0.88733870203E+00  0.88000000000E+00 0. -1.
        -11    1    4    4    0    0 -0.33809668060E-01 -0.19788154503E-01 -0.81287936435E-01  0.90236657982E-01  0.51100000000E-03 0.  1.
         11    1    4    4    0    0 -0.33646763509E-02 -0.15107958404E-01 -0.40258517265E-01  0.43134450123E-01  0.51100000000E-03 0. -1.
</event>
<event>
 8    1  0.1166736E+005  0.1043930E+01  0.7957747E-01            NaN
         13   -1    0    0    0    0  0.00000000000E+00  0.00000000000E+00  0.74505805969E-08  0.10566000000E+00  0.10566000000E+00 0.  1.
     999900   -1    0    0    0    0 -0.00000000000E+00 -0.00000000000E+00 -0.74505805969E-08  0.93827000000E+00  0.93827000000E+00 0. -1.
     999902    2    1    2    0    0 -0.10562727064E-01 -0.22724543604E-01 -0.79243243680E-02  0.10176474773E+01  0.10173080246E+01 0.  0.
     999903    2    3    3    0    0 -0.27971129827E-03 -0.96559271091E-01  0.84198015924E-01  0.12970387940E+00  0.20248935124E-01 0.  0.
         14    1    1    2    0    0  0.10562727064E-01  0.22724543604E-01  0.79243243680E-02  0.26282522743E-01  0.00000000000E+00 0. -1.
     999901    1    3    3    0    0 -0.10283015766E-01  0.73834727487E-01 -0.92122340292E-01  0.88794359786E+00  0.88000000000E+00 0. -1.
        -11    1    4    4    0    0  0.73126323787E-02 -0.22052129945E-01  0.14473177328E-01  0.27377089151E-01  0.51100000000E-03 0.  1.
         11    1    4    4    0    0 -0.75923436769E-02 -0.74507141145E-01  0.69724838597E-01  0.10232679025E+00  0.51100000000E-03 0. -1.
</event>
<event>
 8    1  0.1166736E+005  0.1043930E+01  0.7957747E-01            NaN
         13   -1    0    0    0    0  0.00000000000E+00  0.00000000000E+00  0.74505805969E-08  0.10566000000E+00  0.10566000000E+00 0. -1.
     999900   -1    0    0    0    0 -0.00000000000E+00 -0.00000000000E+00 -0.74505805969E-08  0.93827000000E+00  0.93827000000E+00 0.  1.
     999902    2    1    2    0    0 -0.23176592594E-01  0.21848044280E-02 -0.10927749499E-02  0.10206250226E+01  0.10203589147E+01 0.  0.
     999903    2    3    3    0    0  0.91320632221E-01 -0.66066113268E-01  0.58662343468E-01  0.12858327669E+00  0.19702774240E-01 0.  0.
         14    1    1    2    0    0  0.23176592594E-01 -0.21848044280E-02  0.10927749499E-02  0.23304977402E-01  0.00000000000E+00 0.  1.
     999901    1    3    3    0    0 -0.11449722481E+00  0.68250917696E-01 -0.59755118418E-01  0.89204174590E+00  0.88000000000E+00 0.  1.
        -11    1    4    4    0    0  0.22141652235E-01 -0.26583782638E-01  0.20987588367E-01  0.40468385803E-01  0.51100000000E-03 0.  1.
         11    1    4    4    0    0  0.69178979986E-01 -0.39482330630E-01  0.37674755101E-01  0.88114890892E-01  0.51100000000E-03 0. -1.
</event>
<event>
 8    1  0.1166736E+005  0.1043930E+01  0.7957747E-01            NaN
         13   -1    0    0    0    0  0.00000000000E+00  0.00000000000E+00  0.74505805969E-08  0.10566000000E+00  0.10566000000E+00 0.  1.
     999900   -1    0    0    0    0 -0.00000000000E+00 -0.00000000000E+00 -0.74505805969E-08  0.93827000000E+00  0.93827000000E+00 0.  1.
     999902    2    1    2    0    0  0.23258609834E-01  0.13501133400E-01 -0.17307879690E-01  0.10119486580E+01  0.10114431671E+01 0.  0.
     999903    2    3    3    0    0 -0.11620289961E+00  0.22903596688E-01  0.83127768657E-02  0.12054844658E+00  0.20859939965E-01 0.  0.
         14    1    1    2    0    0 -0.23258609834E-01 -0.13501133400E-01  0.17307879690E-01  0.31981341965E-01  0.00000000000E+00 0.  1.
     999901    1    3    3    0    0  0.13946150945E+00 -0.94024632879E-02 -0.25620656556E-01  0.89140021145E+00  0.88000000000E+00 0.  1.
        -11    1    4    4    0    0 -0.48018282948E-01  0.19595473015E-01  0.63610078143E-02  0.52253819012E-01  0.51100000000E-03 0.  1.
         11    1    4    4    0    0 -0.68184616663E-01  0.33081236727E-02  0.19517690515E-02  0.68294627572E-01  0.51100000000E-03 0. -1.
</event>
<event>
 8    1  0.1166736E+005  0.1043930E+01  0.7957747E-01            NaN
         13   -1    0    0    0    0  0.00000000000E+00  0.00000000000E+00  0.74505805969E-08  0.10566000000E+00  0.10566000000E+00 0.  1.
     999900   -1    0    0    0    0 -0.00000000000E+00 -0.00000000000E+00 -0.74505805969E-08  0.93827000000E+00  0.93827000000E+00 0. -1.
     999902    2    1    2    0    0 -0.21861388708E-01  0.34673644427E-02 -0.98762783607E-02  0.10196919348E+01  0.10194038248E+01 0.  0.
     999903    2    3    3    0    0 -0.93004111230E-01 -0.65020800178E-01  0.62769997288E-01  0.13119354026E+00  0.19854553249E-01 0.  0.
         14    1    1    2    0    0  0.21861388708E-01 -0.34673644427E-02  0.98762783607E-02  0.24238065242E-01  0.00000000000E+00 0.  1.
     999901    1    3    3    0    0  0.71142722522E-01  0.68488164620E-01 -0.72646275649E-01  0.88849839450E+00  0.88000000000E+00 0. -1.
        -11    1    4    4    0    0 -0.65692822389E-01 -0.38040830145E-01  0.49243373544E-01  0.90486588125E-01  0.51100000000E-03 0. -1.
         11    1    4    4    0    0 -0.27311288841E-01 -0.26979970032E-01  0.13526623744E-01  0.40706952134E-01  0.51100000000E-03 0.  1.
</event>
<event>
 8    1  0.1166736E+005  0.1043930E+01  0.7957747E-01            NaN
         13   -1    0    0    0    0  0.00000000000E+00  0.00000000000E+00  0.74505805969E-08  0.10566000000E+00  0.10566000000E+00 0.  1.
     999900   -1    0    0    0    0 -0.00000000000E+00 -0.00000000000E+00 -0.74505805969E-08  0.93827000000E+00  0.93827000000E+00 0. -1.
     999902    2    1    2    0    0 -0.80145586051E-02  0.21409788949E-01  0.31325525124E-02  0.10208556615E+01  0.10205948542E+01 0.  0.
     999903    2    3    3    0    0 -0.73687216546E-01 -0.91755170289E-01 -0.49944603853E-01  0.12960014789E+00  0.21281863658E-01 0.  0.
         14    1    1    2    0    0  0.80145586051E-02 -0.21409788949E-01 -0.31325525124E-02  0.23074338511E-01  0.00000000000E+00 0. -1.
     999901    1    3    3    0    0  0.65672657941E-01  0.11316495924E+00  0.53077156366E-01  0.89125551360E+00  0.88000000000E+00 0.  1.
        -11    1    4    4    0    0 -0.24105184698E-01 -0.19342277195E-01 -0.61451610442E-02  0.31515198582E-01  0.51100000000E-03 0. -1.
         11    1    4    4    0    0 -0.49582031848E-01 -0.72412893094E-01 -0.43799442809E-01  0.98084949304E-01  0.51100000000E-03 0.  1.
</event>
<event>
 8    1  0.1184782E+005  0.1043930E+01  0.7957747E-01            NaN
         13   -1    0    0    0    0  0.00000000000E+00  0.00000000000E+00  0.74505805969E-08  0.10566000000E+00  0.10566000000E+00 0.  1.
     999900   -1    0    0    0    0 -0.00000000000E+00 -0.00000000000E+00 -0.74505805969E-08  0.93827000000E+00  0.93827000000E+00 0.  1.
     999902    2    1    2    0    0  0.23883954504E-02 -0.20579778883E-01  0.76044058445E-02  0.10218605931E+01  0.10216222458E+01 0.  0.
     999903    2    3    3    0    0  0.75569002783E-01 -0.71680273916E-03 -0.10564460435E+00  0.13136900000E+00  0.19642905693E-01 0.  0.
         14    1    1    2    0    0 -0.23883954504E-02  0.20579778883E-01 -0.76044058445E-02  0.22069406878E-01  0.00000000000E+00 0. -1.
     999901    1    3    3    0    0 -0.73180607333E-01 -0.19862976144E-01  0.11324901020E+00  0.89049159312E+00  0.88000000000E+00 0.  1.
        -11    1    4    4    0    0  0.35743678300E-01  0.89368650202E-02 -0.55322385579E-01  0.66470335955E-01  0.51100000000E-03 0.  1.
         11    1    4    4    0    0  0.39825324483E-01 -0.96536677593E-02 -0.50322218775E-01  0.64898664045E-01  0.51100000000E-03 0. -1.
</event>
<event>
 8    1  0.1166736E+005  0.1043930E+01  0.7957747E-01            NaN
         13   -1    0    0    0    0  0.00000000000E+00  0.00000000000E+00  0.74505805969E-08  0.10566000000E+00  0.10566000000E+00 0.  1.
     999900   -1    0    0    0    0 -0.00000000000E+00 -0.00000000000E+00 -0.74505805969E-08  0.93827000000E+00  0.93827000000E+00 0.  1.
     999902    2    1    2    0    0  0.21277315701E-01  0.86125445857E-03  0.99402330629E-02  0.10204294860E+01  0.10201588415E+01 0.  0.
     999903    2    3    3    0    0 -0.10329603919E+00 -0.56330006667E-01  0.49484250954E-01  0.12894023179E+00  0.18268851037E-01 0.  0.
         14    1    1    2    0    0 -0.21277315701E-01 -0.86125445857E-03 -0.99402330629E-02  0.23500513952E-01  0.00000000000E+00 0. -1.
     999901    1    3    3    0    0  0.12457335490E+00  0.57191261125E-01 -0.39544017891E-01  0.89148925425E+00  0.88000000000E+00 0.  1.
        -11    1    4    4    0    0 -0.64357338584E-01 -0.27605566851E-01  0.35814291574E-01  0.78656588743E-01  0.51100000000E-03 0. -1.
         11    1    4    4    0    0 -0.38938700611E-01 -0.28724439816E-01  0.13669959380E-01  0.50283643051E-01  0.51100000000E-03 0.  1.
</event>
<event>
 8    1  0.1166736E+005  0.1043930E+01  0.7957747E-01            NaN
         13   -1    0    0    0    0  0.00000000000E+00  0.00000000000E+00  0.74505805969E-08  0.10566000000E+00  0.10566000000E+00 0. -1.
     999900   -1    0    0    0    0 -0.00000000000E+00 -0.00000000000E+00 -0.74505805969E-08  0.93827000000E+00  0.93827000000E+00 0. -1.
     999902    2    1    2    0    0  0.12808191952E-01  0.19212620129E-01 -0.76975596897E-02  0.10195901771E+01  0.10192996136E+01 0.  0.
     999903    2    3    3    0    0  0.33193913031E-01  0.71705843285E-01  0.10241904729E+00  0.13094132450E+00  0.20307766786E-01 0.  0.
         14    1    1    2    0    0 -0.12808191952E-01 -0.19212620129E-01  0.76975596897E-02  0.24339822893E-01  0.00000000000E+00 0. -1.
     999901    1    3    3    0    0 -0.20385721079E-01 -0.52493223156E-01 -0.11011660698E+00  0.88864885260E+00  0.88000000000E+00 0. -1.
        -11    1    4    4    0    0  0.20835686884E-01  0.58515969353E-01  0.68267189229E-01  0.92297967277E-01  0.51100000000E-03 0.  1.
         11    1    4    4    0    0  0.12358226147E-01  0.13189873931E-01  0.34151858059E-01  0.38643357226E-01  0.51100000000E-03 0. -1.
</event>
<event>
 8    1  0.1166736E+005  0.1043930E+01  0.7957747E-01            NaN
         13   -1    0    0    0    0  0.00000000000E+00  0.00000000000E+00  0.74505805969E-08  0.10566000000E+00  0.10566000000E+00 0.  1.
     999900   -1    0    0    0    0 -0.00000000000E+00 -0.00000000000E+00 -0.74505805969E-08  0.93827000000E+00  0.93827000000E+00 0. -1.
     999902    2    1    2    0    0  0.35251116943E-02 -0.16806440667E-01  0.14428353845E-01  0.10215009952E+01  0.10212547297E+01 0.  0.
     999903    2    3    3    0    0 -0.53025141767E-01  0.44779416931E-01  0.11056076562E+00  0.13232599017E+00  0.21670785426E-01 0.  0.
         14    1    1    2    0    0 -0.35251116943E-02  0.16806440667E-01 -0.14428353845E-01  0.22429004771E-01  0.00000000000E+00 0. -1.
     999901    1    3    3    0    0  0.56550253461E-01 -0.61585857598E-01 -0.96132411773E-01  0.88917500506E+00  0.88000000000E+00 0. -1.
        -11    1    4    4    0    0 -0.77831748977E-02  0.19096273156E-01  0.29120993256E-01  0.35686675793E-01  0.51100000000E-03 0. -1.
         11    1    4    4    0    0 -0.45241966869E-01  0.25683143775E-01  0.81439772363E-01  0.96639314380E-01  0.51100000000E-03 0.  1.
</event>
<event>
 8    1  0.1166736E+005  0.1043930E+01  0.7957747E-01            NaN
         13   -1    0    0    0    0  0.00000000000E+00  0.00000000000E+00  0.74505805969E-08  0.10566000000E+00  0.10566000000E+00 0. -1.
     999900   -1    0    0    0    0 -0.00000000000E+00 -0.00000000000E+00 -0.74505805969E-08  0.93827000000E+00  0.93827000000E+00 0.  1.
     999902    2    1    2    0    0  0.15151108488E-01  0.17740237166E-01  0.13589734021E-01  0.10169308709E+01  0.10165723994E+01 0.  0.
     999903    2    3    3    0    0  0.63940725049E-01 -0.10961804574E-01  0.11058174032E+00  0.12979408143E+00  0.20238695707E-01 0.  0.
         14    1    1    2    0    0 -0.15151108488E-01 -0.17740237166E-01 -0.13589734021E-01  0.26999129132E-01  0.00000000000E+00 0.  1.
     999901    1    3    3    0    0 -0.48789616561E-01  0.28702041740E-01 -0.96992006297E-01  0.88713678944E+00  0.88000000000E+00 0.  1.
        -11    1    4    4    0    0  0.52891106387E-01 -0.80671804616E-02  0.72980806711E-01  0.90493136781E-01  0.51100000000E-03 0.  1.
         11    1    4    4    0    0  0.11049618662E-01 -0.28946241125E-02  0.37600933608E-01  0.39300944652E-01  0.51100000000E-03 0. -1.
</event>
<event>
 8    1  0.1166736E+005  0.1043930E+01  0.7957747E-01            NaN
         13   -1    0    0    0    0  0.00000000000E+00  0.00000000000E+00  0.74505805969E-08  0.10566000000E+00  0.10566000000E+00 0.  1.
     999900   -1    0    0    0    0 -0.00000000000E+00 -0.00000000000E+00 -0.74505805969E-08  0.93827000000E+00  0.93827000000E+00 0.  1.
     999902    2    1    2    0    0  0.49148742981E-02  0.19425054800E-01  0.13055293586E-01  0.10200149538E+01  0.10197345618E+01 0.  0.
     999903    2    3    3    0    0  0.73120578350E-01  0.87725408444E-01 -0.62041971851E-01  0.13155755155E+00  0.20391587304E-01 0.  0.
         14    1    1    2    0    0 -0.49148742981E-02 -0.19425054800E-01 -0.13055293586E-01  0.23915046184E-01  0.00000000000E+00 0. -1.
     999901    1    3    3    0    0 -0.68205704051E-01 -0.68300353643E-01  0.75097265437E-01  0.88845740227E+00  0.88000000000E+00 0. -1.
        -11    1    4    4    0    0  0.67257135522E-01  0.86509334681E-01 -0.56095820042E-01  0.12310316573E+00  0.51100000000E-03 0.  1.
         11    1    4    4    0    0  0.58634428272E-02  0.12160737631E-02 -0.59461518096E-02  0.84543858161E-02  0.51100000000E-03 0. -1.
</event>
<event>
 8    1  0.1166736E+005  0.1043930E+01  0.7957747E-01            NaN
         13   -1    0    0    0    0  0.00000000000E+00  0.00000000000E+00  0.74505805969E-08  0.10566000000E+00  0.10566000000E+00 0.  1.
     999900   -1    0    0    0    0 -0.00000000000E+00 -0.00000000000E+00 -0.74505805969E-08  0.93827000000E+00  0.93827000000E+00 0.  1.
     999902    2    1    2    0    0 -0.15959195271E-01 -0.17132974420E-01  0.12491414405E-02  0.10204822905E+01  0.10202128749E+01 0.  0.
     999903    2    3    3    0    0  0.86419695133E-01  0.14990439807E-01  0.92763109583E-01  0.12925383646E+00  0.20210956110E-01 0.  0.
         14    1    1    2    0    0  0.15959195271E-01  0.17132974420E-01 -0.12491414405E-02  0.23447709494E-01  0.00000000000E+00 0. -1.
     999901    1    3    3    0    0 -0.10237889040E+00 -0.32123414227E-01 -0.91513968142E-01  0.89122845405E+00  0.88000000000E+00 0.  1.
        -11    1    4    4    0    0  0.64241133344E-01  0.19963561728E-01  0.69416371511E-01  0.96666233840E-01  0.51100000000E-03 0.  1.
         11    1    4    4    0    0  0.22178561789E-01 -0.49731219213E-02  0.23346738072E-01  0.32587602616E-01  0.51100000000E-03 0. -1.
</event>
<event>
 8    1  0.1166736E+005  0.1043930E+01  0.7957747E-01            NaN
         13   -1    0    0    0    0  0.00000000000E+00  0.00000000000E+00  0.74505805969E-08  0.10566000000E+00  0.10566000000E+00 0. -1.
     999900   -1    0    0    0    0 -0.00000000000E+00 -0.00000000000E+00 -0.74505805969E-08  0.93827000000E+00  0.93827000000E+00 0.  1.
     999902    2    1    2    0    0  0.12519264075E-01 -0.17251346379E-01  0.10421493982E-01  0.10202034650E+01  0.10199275276E+01 0.  0.
     999903    2    3    3    0    0 -0.32751263409E-01  0.10100599370E+00  0.70687483646E-01  0.12909953807E+00  0.19877483913E-01 0.  0.
         14    1    1    2    0    0 -0.12519264075E-01  0.17251346379E-01 -0.10421493982E-01  0.23726534970E-01  0.00000000000E+00 0.  1.
     999901    1    3    3    0    0  0.45270527484E-01 -0.11825734008E+00 -0.60265989664E-01  0.89110392696E+00  0.88000000000E+00 0.  1.
        -11    1    4    4    0    0 -0.12459219180E-01  0.26597230712E-01  0.29634258062E-01  0.41726432821E-01  0.51100000000E-03 0.  1.
         11    1    4    4    0    0 -0.20292044229E-01  0.74408762987E-01  0.41053225584E-01  0.87373105245E-01  0.51100000000E-03 0. -1.
</event>
<event>
 8    1  0.1166736E+005  0.1043930E+01  0.7957747E-01            NaN
         13   -1    0    0    0    0  0.00000000000E+00  0.00000000000E+00  0.74505805969E-08  0.10566000000E+00  0.10566000000E+00 0. -1.
     999900   -1    0    0    0    0 -0.00000000000E+00 -0.00000000000E+00 -0.74505805969E-08  0.93827000000E+00  0.93827000000E+00 0.  1.
     999902    2    1    2    0    0  0.20018405102E-01  0.80293114079E-02  0.10344145578E-01  0.10200091360E+01  0.10197286060E+01 0.  0.
     999903    2    3    3    0    0 -0.12441323915E+00 -0.11813715889E-01  0.14932786885E-01  0.12800280130E+00  0.23313323635E-01 0.  0.
         14    1    1    2    0    0 -0.20018405102E-01 -0.80293114079E-02 -0.10344145578E-01  0.23920863953E-01  0.00000000000E+00 0.  1.
     999901    1    3    3    0    0  0.14443164425E+00  0.19843027296E-01 -0.45886413066E-02  0.89200633474E+00  0.88000000000E+00 0.  1.
        -11    1    4    4    0    0 -0.49318862566E-01 -0.51818137925E-02 -0.54932110501E-02  0.49896271280E-01  0.51100000000E-03 0.  1.
         11    1    4    4    0    0 -0.75094376583E-01 -0.66319020960E-02  0.20425997935E-01  0.78106530024E-01  0.51100000000E-03 0. -1.
</event>
<event>
 8    1  0.1166736E+005  0.1043930E+01  0.7957747E-01            NaN
         13   -1    0    0    0    0  0.00000000000E+00  0.00000000000E+00  0.74505805969E-08  0.10566000000E+00  0.10566000000E+00 0.  1.
     999900   -1    0    0    0    0 -0.00000000000E+00 -0.00000000000E+00 -0.74505805969E-08  0.93827000000E+00  0.93827000000E+00 0.  1.
     999902    2    1    2    0    0  0.16447764823E-01 -0.10316834295E-01  0.13301442582E-01  0.10203950385E+01  0.10201235907E+01 0.  0.
     999903    2    3    3    0    0  0.11957454075E+00  0.52048002012E-01 -0.31245800477E-02  0.13202894340E+00  0.20366972934E-01 0.  0.
         14    1    1    2    0    0 -0.16447764823E-01  0.10316834295E-01 -0.13301442582E-01  0.23534961490E-01  0.00000000000E+00 0. -1.
     999901    1    3    3    0    0 -0.10312677592E+00 -0.62364836307E-01  0.16426022630E-01  0.88836609511E+00  0.88000000000E+00 0. -1.
        -11    1    4    4    0    0  0.66581607084E-01  0.37721050887E-01  0.42177182775E-02  0.76642275217E-01  0.51100000000E-03 0. -1.
         11    1    4    4    0    0  0.52992933664E-01  0.14326951125E-01 -0.73422983251E-02  0.55386668184E-01  0.51100000000E-03 0.  1.
</event>
<event>
 8    1  0.1166736E+005  0.1043930E+01  0.7957747E-01            NaN
         13   -1    0    0    0    0  0.00000000000E+00  0.00000000000E+00  0.74505805969E-08  0.10566000000E+00  0.10566000000E+00 0. -1.
     999900   -1    0    0    0    0 -0.00000000000E+00 -0.00000000000E+00 -0.74505805969E-08  0.93827000000E+00  0.93827000000E+00 0. -1.
     999902    2    1    2    0    0  0.14677926565E-01 -0.11253047825E-01  0.13696741162E-01  0.10209153670E+01  0.10206559230E+01 0.  0.
     999903    2    3    3    0    0 -0.11918183814E+00 -0.29570729946E-01  0.41208867844E-01  0.13017921572E+00  0.13027617008E-01 0.  0.
         14    1    1    2    0    0 -0.14677926565E-01  0.11253047825E-01 -0.13696741162E-01  0.23014632998E-01  0.00000000000E+00 0.  1.
     999901    1    3    3    0    0  0.13385976470E+00  0.18317682121E-01 -0.27512126683E-01  0.89073615128E+00  0.88000000000E+00 0.  1.
        -11    1    4    4    0    0 -0.37526996655E-01 -0.40665770117E-02  0.93325422809E-02  0.38886630002E-01  0.51100000000E-03 0.  1.
         11    1    4    4    0    0 -0.81654841484E-01 -0.25504152934E-01  0.31876325564E-01  0.91292585718E-01  0.51100000000E-03 0. -1.
</event>
<event>
 8    1  0.1166736E+005  0.1043930E+01  0.7957747E-01            NaN
         13   -1    0    0    0    0  0.00000000000E+00  0.00000000000E+00  0.74505805969E-08  0.10566000000E+00  0.10566000000E+00 0. -1.
     999900   -1    0    0    0    0 -0.00000000000E+00 -0.00000000000E+00 -0.74505805969E-08  0.93827000000E+00  0.93827000000E+00 0.  1.
     999902    2    1    2    0    0  0.10482453979E-01 -0.21603729078E-01  0.66451315874E-02  0.10190149298E+01  0.10187102956E+01 0.  0.
     999903    2    3    3    0    0  0.15261162616E-01  0.11020241523E+00  0.59409403563E-01  0.12762289247E+00  0.19510254840E-01 0.  0.
         14    1    1    2    0    0 -0.10482453979E-01  0.21603729078E-01 -0.66451315874E-02  0.24915070245E-01  0.00000000000E+00 0. -1.
     999901    1    3    3    0    0 -0.47787086371E-02 -0.13180614431E+00 -0.52764271975E-01  0.89139203728E+00  0.88000000000E+00 0.  1.
        -11    1    4    4    0    0  0.17714370229E-01  0.90819547497E-01  0.42699917798E-01  0.10190943637E+00  0.51100000000E-03 0. -1.
         11    1    4    4    0    0 -0.24532076127E-02  0.19382867734E-01  0.16709485765E-01  0.25713456102E-01  0.51100000000E-03 0.  1.
</event>
<event>
 8    1  0.1166736E+005  0.1043930E+01  0.7957747E-01            NaN
         13   -1    0    0    0    0  0.00000000000E+00  0.00000000000E+00  0.74505805969E-08  0.10566000000E+00  0.10566000000E+00 0. -1.
     999900   -1    0    0    0    0 -0.00000000000E+00 -0.00000000000E+00 -0.74505805969E-08  0.93827000000E+00  0.93827000000E+00 0.  1.
     999902    2    1    2    0    0 -0.86103241897E-02  0.18635083885E-01 -0.11158232795E-01  0.10205652789E+01  0.10202977890E+01 0.  0.
     999903    2    3    3    0    0  0.26819342765E-01 -0.56565462989E-01 -0.11326438105E+00  0.13076976919E+00  0.18787862291E-01 0.  0.
         14    1    1    2    0    0  0.86103241897E-02 -0.18635083885E-01  0.11158232795E-01  0.23364721123E-01  0.00000000000E+00 0. -1.
     999901    1    3    3    0    0 -0.35429666955E-01  0.75200546874E-01  0.10210614825E+00  0.88979550969E+00  0.88000000000E+00 0. -1.
        -11    1    4    4    0    0  0.28713420658E-01 -0.50138804543E-01 -0.10689132825E+00  0.12150875451E+00  0.51100000000E-03 0. -1.
         11    1    4    4    0    0 -0.18940778928E-02 -0.64266584460E-02 -0.63730527967E-02  0.92610146742E-02  0.51100000000E-03 0.  1.
</event>
<event>
 8    1  0.1166736E+005  0.1043930E+01  0.7957747E-01            NaN
         13   -1    0    0    0    0  0.00000000000E+00  0.00000000000E+00  0.74505805969E-08  0.10566000000E+00  0.10566000000E+00 0. -1.
     999900   -1    0    0    0    0 -0.00000000000E+00 -0.00000000000E+00 -0.74505805969E-08  0.93827000000E+00  0.93827000000E+00 0. -1.
     999902    2    1    2    0    0 -0.35252134974E-03  0.14291601129E-01  0.20006477329E-01  0.10193407082E+01  0.10190440845E+01 0.  0.
     999903    2    3    3    0    0 -0.10499156339E+00  0.74752415641E-01  0.12821382956E-01  0.13105220511E+00  0.19978502851E-01 0.  0.
         14    1    1    2    0    0  0.35252134974E-03 -0.14291601129E-01 -0.20006477329E-01  0.24589291760E-01  0.00000000000E+00 0.  1.
     999901    1    3    3    0    0  0.10463904204E+00 -0.60460814511E-01  0.71850943735E-02  0.88828850313E+00  0.88000000000E+00 0. -1.
        -11    1    4    4    0    0 -0.94091848452E-01  0.58412637112E-01  0.11809938566E-01  0.11137795064E+00  0.51100000000E-03 0.  1.
         11    1    4    4    0    0 -0.10899714939E-01  0.16339778529E-01  0.10114443897E-02  0.19674254468E-01  0.51100000000E-03 0. -1.
</event>
<event>
 8    1  0.1166736E+005  0.1043930E+01  0.7957747E-01            NaN
         13   -1    0    0    0    0  0.00000000000E+00  0.00000000000E+00  0.74505805969E-08  0.10566000000E+00  0.10566000000E+00 0. -1.
     999900   -1    0    0    0    0 -0.00000000000E+00 -0.00000000000E+00 -0.74505805969E-08  0.93827000000E+00  0.93827000000E+00 0.  1.
     999902    2    1    2    0    0  0.74922154695E-02  0.19503009608E-02 -0.22362161749E-01  0.10202656123E+01  0.10199911355E+01 0.  0.
     999903    2    3    3    0    0  0.10054320576E+00  0.48646365485E-01 -0.68908076370E-01  0.13290687347E+00  0.20988304545E-01 0.  0.
         14    1    1    2    0    0 -0.74922154695E-02 -0.19503009608E-02  0.22362161749E-01  0.23664387687E-01  0.00000000000E+00 0. -1.
     999901    1    3    3    0    0 -0.93050990287E-01 -0.46696064524E-01  0.46545914620E-01  0.88735873884E+00  0.88000000000E+00 0.  1.
        -11    1    4    4    0    0  0.87009279509E-01  0.41474221907E-01 -0.67165484116E-01  0.11748271865E+00  0.51100000000E-03 0.  1.
         11    1    4    4    0    0  0.13533926247E-01  0.71721435783E-02 -0.17425922539E-02  0.15424154821E-01  0.51100000000E-03 0. -1.
</event>
<event>
 8    1  0.1166736E+005  0.1043930E+01  0.7957747E-01            NaN
         13   -1    0    0    0    0  0.00000000000E+00  0.00000000000E+00  0.74505805969E-08  0.10566000000E+00  0.10566000000E+00 0.  1.
     999900   -1    0    0    0    0 -0.00000000000E+00 -0.00000000000E+00 -0.74505805969E-08  0.93827000000E+00  0.93827000000E+00 0. -1.
     999902    2    1    2    0    0 -0.41026071577E-02  0.15936245437E-01  0.16445958356E-01  0.10206649006E+01  0.10203997131E+01 0.  0.
     999903    2    3    3    0    0  0.91284958847E-01  0.61704883530E-02  0.93247472277E-01  0.13213092246E+00  0.19810879475E-01 0.  0.
         14    1    1    2    0    0  0.41026071577E-02 -0.15936245437E-01 -0.16445958356E-01  0.23265099406E-01  0.00000000000E+00 0. -1.
     999901    1    3    3    0    0 -0.95387566005E-01  0.97657570841E-02 -0.76801513921E-01  0.88853397813E+00  0.88000000000E+00 0. -1.
        -11    1    4    4    0    0  0.53249502009E-01 -0.51455527603E-02  0.59707041993E-01  0.80169683559E-01  0.51100000000E-03 0. -1.
         11    1    4    4    0    0  0.38035456838E-01  0.11316041113E-01  0.33540430284E-01  0.51961238900E-01  0.51100000000E-03 0.  1.
</event>
<event>
 8    1  0.1166736E+005  0.1043930E+01  0.7957747E-01            NaN
         13   -1    0    0    0    0  0.00000000000E+00  0.00000000000E+00  0.74505805969E-08  0.10566000000E+00  0.10566000000E+00 0. -1.
     999900   -1    0    0    0    0 -0.00000000000E+00 -0.00000000000E+00 -0.74505805969E-08  0.93827000000E+00  0.93827000000E+00 0.  1.
     999902    2    1    2    0    0  0.18605335648E-02  0.24698409150E-01 -0.23993181313E-02  0.10190456731E+01  0.10187417995E+01 0.  0.
     999903    2    3    3    0    0  0.53134789866E-01  0.10291475231E+00 -0.60501759438E-01  0.13218450051E+00  0.19938082735E-01 0.  0.
         14    1    1    2    0    0 -0.18605335648E-02 -0.24698409150E-01  0.23993181313E-02  0.24884326938E-01  0.00000000000E+00 0. -1.
     999901    1    3    3    0    0 -0.51274256301E-01 -0.78216343158E-01  0.58102441307E-01  0.88686117255E+00  0.88000000000E+00 0. -1.
        -11    1    4    4    0    0  0.68901595061E-03  0.15218028103E-01 -0.60604496624E-02  0.16402844065E-01  0.51100000000E-03 0.  1.
         11    1    4    4    0    0  0.52445773915E-01  0.87696724204E-01 -0.54441309776E-01  0.11578165644E+00  0.51100000000E-03 0. -1.
</event>
<event>
 8    1  0.1166736E+005  0.1043930E+01  0.7957747E-01            NaN
         13   -1    0    0    0    0  0.00000000000E+00  0.00000000000E+00  0.74505805969E-08  0.10566000000E+00  0.10566000000E+00 0.  1.
     999900   -1    0    0    0    0 -0.00000000000E+00 -0.00000000000E+00 -0.74505805969E-08  0.93827000000E+00  0.93827000000E+00 0. -1.
     999902    2    1    2    0    0 -0.35143458252E-02 -0.20638496585E-01  0.10396300397E-01  0.10205552010E+01  0.10202874776E+01 0.  0.
     999903    2    3    3    0    0  0.33387298013E-01 -0.12627611630E+00 -0.11250718552E-01  0.13320542132E+00  0.23595261914E-01 0.  0.
         14    1    1    2    0    0  0.35143458252E-02  0.20638496585E-01 -0.10396300397E-01  0.23374799033E-01  0.00000000000E+00 0. -1.
     999901    1    3    3    0    0 -0.36901643838E-01  0.10563761971E+00  0.21647018949E-01  0.88734977965E+00  0.88000000000E+00 0.  1.
        -11    1    4    4    0    0  0.16355074866E-01 -0.63118717300E-01  0.62078055309E-02  0.65500068076E-01  0.51100000000E-03 0.  1.
         11    1    4    4    0    0  0.17032223147E-01 -0.63157398997E-01 -0.17458524083E-01  0.67705353241E-01  0.51100000000E-03 0. -1.
</event>
<event>
 8    1  0.1166736E+005  0.1043930E+01  0.7957747E-01            NaN
         13   -1    0    0    0    0  0.00000000000E+00  0.00000000000E+00  0.74505805969E-08  0.10566000000E+00  0.10566000000E+00 0.  1.
     999900   -1    0    0    0    0 -0.00000000000E+00 -0.00000000000E+00 -0.74505805969E-08  0.93827000000E+00  0.93827000000E+00 0. -1.
     999902    2    1    2    0    0 -0.22314026395E-01  0.52122747713E-02 -0.51097136449E-02  0.10204525053E+01  0.10201823969E+01 0.  0.
     999903    2    3    3    0    0 -0.96991775864E-01 -0.36992501434E-01  0.79614967260E-01  0.13223165388E+00  0.19256622991E-01 0.  0.
         14    1    1    2    0    0  0.22314026395E-01 -0.52122747713E-02  0.51097136449E-02  0.23477494666E-01  0.00000000000E+00 0.  1.
     999901    1    3    3    0    0  0.74677749469E-01  0.42204776205E-01 -0.84724680905E-01  0.88822085145E+00  0.88000000000E+00 0. -1.
        -11    1    4    4    0    0 -0.53921889653E-01 -0.10844916431E-01  0.37630670382E-01  0.66644661231E-01  0.51100000000E-03 0. -1.
         11    1    4    4    0    0 -0.43069886210E-01 -0.26147585003E-01  0.41984296878E-01  0.65586992651E-01  0.51100000000E-03 0.  1.
</event>
<event>
 8    1  0.1166736E+005  0.1043930E+01  0.7957747E-01            NaN
         13   -1    0    0    0    0  0.00000000000E+00  0.00000000000E+00  0.74505805969E-08  0.10566000000E+00  0.10566000000E+00 0.  1.
     999900   -1    0    0    0    0 -0.00000000000E+00 -0.00000000000E+00 -0.74505805969E-08  0.93827000000E+00  0.93827000000E+00 0. -1.
     999902    2    1    2    0    0  0.18941159031E-01 -0.96437799410E-02 -0.10775806567E-01  0.10200995992E+01  0.10198212119E+01 0.  0.
     999903    2    3    3    0    0  0.40270933581E-01  0.12186427364E+00 -0.77022186447E-02  0.13006658046E+00  0.19630127308E-01 0.  0.
         14    1    1    2    0    0 -0.18941159031E-01  0.96437799410E-02  0.10775806567E-01  0.23830400839E-01  0.00000000000E+00 0.  1.
     999901    1    3    3    0    0 -0.21329774550E-01 -0.13150805358E+00 -0.30735879219E-02  0.89003301870E+00  0.88000000000E+00 0.  1.
        -11    1    4    4    0    0  0.41976109608E-01  0.10951694719E+00 -0.56411451108E-02  0.11742248140E+00  0.51100000000E-03 0.  1.
         11    1    4    4    0    0 -0.17051760271E-02  0.12347326452E-01 -0.20610735339E-02  0.12644099055E-01  0.51100000000E-03 0. -1.
</event>
<event>
 8    1  0.1166736E+005  0.1043930E+01  0.7957747E-01            NaN
         13   -1    0    0    0    0  0.00000000000E+00  0.00000000000E+00  0.74505805969E-08  0.10566000000E+00  0.10566000000E+00 0.  1.
     999900   -1    0    0    0    0 -0.00000000000E+00 -0.00000000000E+00 -0.74505805969E-08  0.93827000000E+00  0.93827000000E+00 0.  1.
     999902    2    1    2    0    0 -0.83689433852E-02  0.22141704740E-01  0.11469021474E-02  0.10202316944E+01  0.10199564210E+01 0.  0.
     999903    2    3    3    0    0  0.66380649007E-01 -0.43837562194E-02  0.10994335121E+00  0.12999140722E+00  0.19611669887E-01 0.  0.
         14    1    1    2    0    0  0.83689433852E-02 -0.22141704740E-01 -0.11469021474E-02  0.23698305566E-01  0.00000000000E+00 0. -1.
     999901    1    3    3    0    0 -0.74749592392E-01  0.26525460959E-01 -0.10879644906E+00  0.89024028721E+00  0.88000000000E+00 0.  1.
        -11    1    4    4    0    0  0.37302019633E-01  0.72497524005E-02  0.62127621090E-01  0.72829266108E-01  0.51100000000E-03 0. -1.
         11    1    4    4    0    0  0.29078629374E-01 -0.11633508620E-01  0.47815730120E-01  0.57162141116E-01  0.51100000000E-03 0.  1.
</event>
<event>
 8    1  0.1166736E+005  0.1043930E+01  0.7957747E-01            NaN
         13   -1    0    0    0    0  0.00000000000E+00  0.00000000000E+00  0.74505805969E-08  0.10566000000E+00  0.10566000000E+00 0. -1.
     999900   -1    0    0    0    0 -0.00000000000E+00 -0.00000000000E+00 -0.74505805969E-08  0.93827000000E+00  0.93827000000E+00 0.  1.
     999902    2    1    2    0    0 -0.38890641967E-02  0.18561377147E-01  0.13083782176E-01  0.10208901454E+01  0.10206301260E+01 0.  0.
     999903    2    3    3    0    0  0.66382327423E-02 -0.70767950125E-01  0.10835651323E+00  0.13118938340E+00  0.20429181568E-01 0.  0.
         14    1    1    2    0    0  0.38890641967E-02 -0.18561377147E-01 -0.13083782176E-01  0.23039854556E-01  0.00000000000E+00 0.  1.
     999901    1    3    3    0    0 -0.10527296939E-01  0.89329327272E-01 -0.95272731055E-01  0.88970076204E+00  0.88000000000E+00 0.  1.
        -11    1    4    4    0    0 -0.41283381146E-02 -0.36939277553E-01  0.67523005271E-01  0.77078990416E-01  0.51100000000E-03 0.  1.
         11    1    4    4    0    0  0.10766570857E-01 -0.33828672572E-01  0.40833507960E-01  0.54110392988E-01  0.51100000000E-03 0. -1.
</event>
<event>
 8    1  0.1166736E+005  0.1043930E+01  0.7957747E-01            NaN
         13   -1    0    0    0    0  0.00000000000E+00  0.00000000000E+00  0.74505805969E-08  0.10566000000E+00  0.10566000000E+00 0.  1.
     999900   -1    0    0    0    0 -0.00000000000E+00 -0.00000000000E+00 -0.74505805969E-08  0.93827000000E+00  0.93827000000E+00 0. -1.
     999902    2    1    2    0    0 -0.10013773251E-02 -0.20196991331E-01 -0.13987997594E-01  0.10193416838E+01  0.10190450839E+01 0.  0.
     999903    2    3    3    0    0 -0.15172277546E-01 -0.22929213953E-01 -0.12767557142E+00  0.13191104209E+00  0.18534417482E-01 0.  0.
         14    1    1    2    0    0  0.10013773251E-02  0.20196991331E-01  0.13987997594E-01  0.24588316170E-01  0.00000000000E+00 0.  1.
     999901    1    3    3    0    0  0.14170900221E-01  0.27322226217E-02  0.11368757382E+00  0.88743064174E+00  0.88000000000E+00 0.  1.
        -11    1    4    4    0    0 -0.12593173694E-02  0.83932006441E-03 -0.39515602206E-01  0.39547873231E-01  0.51100000000E-03 0. -1.
         11    1    4    4    0    0 -0.13912960177E-01 -0.23768534017E-01 -0.88159969209E-01  0.92363168861E-01  0.51100000000E-03 0.  1.
</event>
<event>
 8    1  0.1166736E+005  0.1043930E+01  0.7957747E-01            NaN
         13   -1    0    0    0    0  0.00000000000E+00  0.00000000000E+00  0.74505805969E-08  0.10566000000E+00  0.10566000000E+00 0. -1.
     999900   -1    0    0    0    0 -0.00000000000E+00 -0.00000000000E+00 -0.74505805969E-08  0.93827000000E+00  0.93827000000E+00 0. -1.
     999902    2    1    2    0    0  0.17279014956E-01  0.72887888790E-02 -0.23669373554E-01  0.10137318205E+01  0.10132819321E+01 0.  0.
     999903    2    3    3    0    0 -0.10699511466E+00  0.55455989654E-01  0.11314415969E-01  0.12300851662E+00  0.21903374269E-01 0.  0.
         14    1    1    2    0    0 -0.17279014956E-01 -0.72887888790E-02  0.23669373554E-01  0.30198179508E-01  0.00000000000E+00 0.  1.
     999901    1    3    3    0    0  0.12427412961E+00 -0.48167200775E-01 -0.34983789524E-01  0.89072330387E+00  0.88000000000E+00 0.  1.
        -11    1    4    4    0    0 -0.50307467922E-01  0.16967603366E-01  0.12217055322E-01  0.54481725877E-01  0.51100000000E-03 0. -1.
         11    1    4    4    0    0 -0.56687646736E-01  0.38488386288E-01 -0.90263935310E-03  0.68526790748E-01  0.51100000000E-03 0.  1.
</event>
<event>
 8    1  0.1166736E+005  0.1043930E+01  0.7957747E-01            NaN
         13   -1    0    0    0    0  0.00000000000E+00  0.00000000000E+00  0.74505805969E-08  0.10566000000E+00  0.10566000000E+00 0. -1.
     999900   -1    0    0    0    0 -0.00000000000E+00 -0.00000000000E+00 -0.74505805969E-08  0.93827000000E+00  0.93827000000E+00 0. -1.
     999902    2    1    2    0    0 -0.21030865219E-01  0.16603915152E-02 -0.10269577976E-01  0.10204668710E+01  0.10201970968E+01 0.  0.
     999903    2    3    3    0    0 -0.45705891460E-01  0.10529751358E+00 -0.63016466452E-01  0.13247377177E+00  0.20040715631E-01 0.  0.
         14    1    1    2    0    0  0.21030865219E-01 -0.16603915152E-02  0.10269577976E-01  0.23463129025E-01  0.00000000000E+00 0. -1.
     999901    1    3    3    0    0  0.24675026241E-01 -0.10363712206E+00  0.52746888476E-01  0.88799309920E+00  0.88000000000E+00 0.  1.
        -11    1    4    4    0    0 -0.24982900924E-01  0.77025175274E-01 -0.38289343806E-01  0.89573198752E-01  0.51100000000E-03 0.  1.
         11    1    4    4    0    0 -0.20722990536E-01  0.28272338305E-01 -0.24727122646E-01  0.42900573019E-01  0.51100000000E-03 0. -1.
</event>
<event>
 8    1  0.1166736E+005  0.1043930E+01  0.7957747E-01            NaN
         13   -1    0    0    0    0  0.00000000000E+00  0.00000000000E+00  0.74505805969E-08  0.10566000000E+00  0.10566000000E+00 0.  1.
     999900   -1    0    0    0    0 -0.00000000000E+00 -0.00000000000E+00 -0.74505805969E-08  0.93827000000E+00  0.93827000000E+00 0.  1.
     999902    2    1    2    0    0  0.22687750348E-01  0.23160137401E-02 -0.50341063189E-02  0.10205753396E+01  0.10203080827E+01 0.  0.
     999903    2    3    3    0    0  0.79655464174E-01  0.63438576680E-01 -0.83423423561E-01  0.13314862535E+00  0.19991069282E-01 0.  0.
         14    1    1    2    0    0 -0.22687750348E-01 -0.23160137401E-02  0.50341063189E-02  0.23354660390E-01  0.00000000000E+00 0.  1.
     999901    1    3    3    0    0 -0.56967713826E-01 -0.61122562940E-01  0.78389317242E-01  0.88742671426E+00  0.88000000000E+00 0. -1.
        -11    1    4    4    0    0  0.39586034549E-01  0.42190749157E-01 -0.53567381583E-01  0.78846933589E-01  0.51100000000E-03 0. -1.
         11    1    4    4    0    0  0.40069429625E-01  0.21247827523E-01 -0.29856041977E-01  0.54301691764E-01  0.51100000000E-03 0.  1.
</event>
<event>
 8    1  0.1166736E+005  0.1043930E+01  0.7957747E-01            NaN
         13   -1    0    0    0    0  0.00000000000E+00  0.00000000000E+00  0.74505805969E-08  0.10566000000E+00  0.10566000000E+00 0.  1.
     999900   -1    0    0    0    0 -0.00000000000E+00 -0.00000000000E+00 -0.74505805969E-08  0.93827000000E+00  0.93827000000E+00 0.  1.
     999902    2    1    2    0    0 -0.44798135649E-02 -0.17631139776E-01 -0.52311026830E-02  0.10250014434E+01  0.10248266530E+01 0.  0.
     999903    2    3    3    0    0 -0.10909612994E+00  0.68814501228E-01  0.30179551458E-01  0.13389463896E+00  0.19482501656E-01 0.  0.
         14    1    1    2    0    0  0.44798135649E-02  0.17631139776E-01  0.52311026830E-02  0.18928556592E-01  0.00000000000E+00 0.  1.
     999901    1    3    3    0    0  0.10461631637E+00 -0.86445641004E-01 -0.35410654141E-01  0.89110680444E+00  0.88000000000E+00 0.  1.
        -11    1    4    4    0    0 -0.53737755239E-01  0.22803152175E-01  0.11099514870E-01  0.59423820464E-01  0.51100000000E-03 0.  1.
         11    1    4    4    0    0 -0.55358374697E-01  0.46011349053E-01  0.19080036588E-01  0.74470818499E-01  0.51100000000E-03 0. -1.
</event>
<event>
 8    1  0.1166736E+005  0.1043930E+01  0.7957747E-01            NaN
         13   -1    0    0    0    0  0.00000000000E+00  0.00000000000E+00  0.74505805969E-08  0.10566000000E+00  0.10566000000E+00 0.  1.
     999900   -1    0    0    0    0 -0.00000000000E+00 -0.00000000000E+00 -0.74505805969E-08  0.93827000000E+00  0.93827000000E+00 0. -1.
     999902    2    1    2    0    0  0.20504444717E-01  0.87494565371E-02  0.72026411667E-02  0.10205021686E+01  0.10202332150E+01 0.  0.
     999903    2    3    3    0    0  0.10171014089E+00  0.46939139377E-01 -0.66435324439E-01  0.13287873105E+00  0.26360373023E-01 0.  0.
         14    1    1    2    0    0 -0.20504444717E-01 -0.87494565371E-02 -0.72026411667E-02  0.23427831368E-01  0.00000000000E+00 0. -1.
     999901    1    3    3    0    0 -0.81205696177E-01 -0.38189682840E-01  0.73637965605E-01  0.88762343758E+00  0.88000000000E+00 0.  1.
        -11    1    4    4    0    0  0.62088361987E-01  0.28713701535E-01 -0.25334598884E-01  0.72948916179E-01  0.51100000000E-03 0. -1.
         11    1    4    4    0    0  0.39621778907E-01  0.18225437842E-01 -0.41100725555E-01  0.59929814870E-01  0.51100000000E-03 0.  1.
</event>
<event>
 8    1  0.1166736E+005  0.1043930E+01  0.7957747E-01            NaN
         13   -1    0    0    0    0  0.00000000000E+00  0.00000000000E+00  0.74505805969E-08  0.10566000000E+00  0.10566000000E+00 0.  1.
     999900   -1    0    0    0    0 -0.00000000000E+00 -0.00000000000E+00 -0.74505805969E-08  0.93827000000E+00  0.93827000000E+00 0. -1.
     999902    2    1    2    0    0 -0.18948626592E-01  0.38545085374E-02  0.12452106138E-01  0.10209308123E+01  0.10206717205E+01 0.  0.
     999903    2    3    3    0    0 -0.90342801453E-01 -0.92748731954E-01 -0.17370415261E-01  0.13226962996E+00  0.20721356879E-01 0.  0.
         14    1    1    2    0    0  0.18948626592E-01 -0.38545085374E-02 -0.12452106138E-01  0.22999187661E-01  0.00000000000E+00 0. -1.
     999901    1    3    3    0    0  0.71394174861E-01  0.96603240492E-01  0.29822521399E-01  0.88866118237E+00  0.88000000000E+00 0.  1.
        -11    1    4    4    0    0 -0.53303276063E-01 -0.63297448779E-01 -0.19043666031E-01  0.84916009079E-01  0.51100000000E-03 0. -1.
         11    1    4    4    0    0 -0.37039525390E-01 -0.29451283176E-01  0.16732507699E-02  0.47353620885E-01  0.51100000000E-03 0.  1.
</event>
<event>
 8    1  0.1166736E+005  0.1043930E+01  0.7957747E-01            NaN
         13   -1    0    0    0    0  0.00000000000E+00  0.00000000000E+00  0.74505805969E-08  0.10566000000E+00  0.10566000000E+00 0. -1.
     999900   -1    0    0    0    0 -0.00000000000E+00 -0.00000000000E+00 -0.74505805969E-08  0.93827000000E+00  0.93827000000E+00 0. -1.
     999902    2    1    2    0    0 -0.14293703639E-01 -0.14944763847E-01 -0.11562175862E-01  0.10202373885E+01  0.10199622488E+01 0.  0.
     999903    2    3    3    0    0  0.32220914915E-01 -0.10226185728E+00  0.72237629247E-01  0.13073736493E+00  0.19450159351E-01 0.  0.
         14    1    1    2    0    0  0.14293703639E-01  0.14944763847E-01  0.11562175862E-01  0.23692611524E-01  0.00000000000E+00 0. -1.
     999901    1    3    3    0    0 -0.46514618553E-01  0.87317093431E-01 -0.83799805109E-01  0.88950002354E+00  0.88000000000E+00 0. -1.
        -11    1    4    4    0    0  0.28398462725E-01 -0.74879532647E-01  0.44717276914E-01  0.91724113897E-01  0.51100000000E-03 0. -1.
         11    1    4    4    0    0  0.38224521896E-02 -0.27382324632E-01  0.27520352333E-01  0.39013251038E-01  0.51100000000E-03 0.  1.
</event>
<event>
 8    1  0.1166736E+005  0.1043930E+01  0.7957747E-01            NaN
         13   -1    0    0    0    0  0.00000000000E+00  0.00000000000E+00  0.74505805969E-08  0.10566000000E+00  0.10566000000E+00 0. -1.
     999900   -1    0    0    0    0 -0.00000000000E+00 -0.00000000000E+00 -0.74505805969E-08  0.93827000000E+00  0.93827000000E+00 0. -1.
     999902    2    1    2    0    0  0.18158337980E-02 -0.16470992314E-01  0.17112386521E-01  0.10201093238E+01  0.10198311664E+01 0.  0.
     999903    2    3    3    0    0 -0.51144624381E-02 -0.10132912884E-01  0.13076583304E+00  0.13275071191E+00  0.19854842561E-01 0.  0.
         14    1    1    2    0    0 -0.18158337980E-02  0.16470992314E-01 -0.17112386521E-01  0.23820676158E-01  0.00000000000E+00 0.  1.
     999901    1    3    3    0    0  0.69302962362E-02 -0.63380794301E-02 -0.11365344652E+00  0.88735861193E+00  0.88000000000E+00 0. -1.
        -11    1    4    4    0    0 -0.10479525984E-01  0.47942482556E-04  0.44555820138E-01  0.45774501553E-01  0.51100000000E-03 0. -1.
         11    1    4    4    0    0  0.53650635455E-02 -0.10180855366E-01  0.86210012904E-01  0.86976210361E-01  0.51100000000E-03 0.  1.
</event>
<event>
 8    1  0.1166736E+005  0.1043930E+01  0.7957747E-01            NaN
         13   -1    0    0    0    0  0.00000000000E+00  0.00000000000E+00  0.74505805969E-08  0.10566000000E+00  0.10566000000E+00 0. -1.
     999900   -1    0    0    0    0 -0.00000000000E+00 -0.00000000000E+00 -0.74505805969E-08  0.93827000000E+00  0.93827000000E+00 0.  1.
     999902    2    1    2    0    0  0.10559086440E-01 -0.16461871447E-01  0.12529205768E-01  0.10207035385E+01  0.10204392412E+01 0.  0.
     999903    2    3    3    0    0  0.26574066184E-02  0.18054290624E-01  0.12947652211E+00  0.13226081281E+00  0.19893054224E-01 0.  0.
         14    1    1    2    0    0 -0.10559086440E-01  0.16461871447E-01 -0.12529205768E-01  0.23226461529E-01  0.00000000000E+00 0. -1.
     999901    1    3    3    0    0  0.79016798214E-02 -0.34516162071E-01 -0.11694731634E+00  0.88844272567E+00  0.88000000000E+00 0.  1.
        -11    1    4    4    0    0  0.49416285402E-02  0.20932441858E-01  0.86920763738E-01  0.89543660326E-01  0.51100000000E-03 0. -1.
         11    1    4    4    0    0 -0.22842219217E-02 -0.28781512347E-02  0.42555758373E-01  0.42717152480E-01  0.51100000000E-03 0.  1.
</event>
<event>
 8    1  0.1166736E+005  0.1043930E+01  0.7957747E-01            NaN
         13   -1    0    0    0    0  0.00000000000E+00  0.00000000000E+00  0.74505805969E-08  0.10566000000E+00  0.10566000000E+00 0.  1.
     999900   -1    0    0    0    0 -0.00000000000E+00 -0.00000000000E+00 -0.74505805969E-08  0.93827000000E+00  0.93827000000E+00 0.  1.
     999902    2    1    2    0    0 -0.42274633494E-02  0.21997896152E-02 -0.23223007819E-01  0.10202230683E+01  0.10199475920E+01 0.  0.
     999903    2    3    3    0    0 -0.85728666640E-01 -0.36692282112E-01 -0.92533820104E-01  0.13289053302E+00  0.20041408459E-01 0.  0.
         14    1    1    2    0    0  0.42274633494E-02 -0.21997896152E-02  0.23223007819E-01  0.23706931748E-01  0.00000000000E+00 0.  1.
     999901    1    3    3    0    0  0.81501203290E-01  0.38892071727E-01  0.69310812285E-01  0.88733253523E+00  0.88000000000E+00 0. -1.
        -11    1    4    4    0    0 -0.68376066355E-01 -0.19907959138E-01 -0.68039789229E-01  0.98495113212E-01  0.51100000000E-03 0.  1.
         11    1    4    4    0    0 -0.17352600285E-01 -0.16784322974E-01 -0.24494030875E-01  0.34395419809E-01  0.51100000000E-03 0. -1.
</event>
<event>
 8    1  0.1166736E+005  0.1043930E+01  0.7957747E-01            NaN
         13   -1    0    0    0    0  0.00000000000E+00  0.00000000000E+00  0.74505805969E-08  0.10566000000E+00  0.10566000000E+00 0. -1.
     999900   -1    0    0    0    0 -0.00000000000E+00 -0.00000000000E+00 -0.74505805969E-08  0.93827000000E+00  0.93827000000E+00 0. -1.
     999902    2    1    2    0    0  0.70032535147E-02  0.21016080596E-01 -0.87843921285E-02  0.10200996255E+01  0.10198212389E+01 0.  0.
     999903    2    3    3    0    0  0.37029474103E-01 -0.82886903093E-01 -0.90450532154E-01  0.12972511870E+00  0.20146637406E-01 0.  0.
         14    1    1    2    0    0 -0.70032535147E-02 -0.21016080596E-01  0.87843921285E-02  0.23830374493E-01  0.00000000000E+00 0. -1.
     999901    1    3    3    0    0 -0.30026220588E-01  0.10390298369E+00  0.81666140025E-01  0.89037450681E+00  0.88000000000E+00 0. -1.
        -11    1    4    4    0    0  0.99307330033E-02 -0.31318068139E-01 -0.20656734516E-01  0.38812403324E-01  0.51100000000E-03 0. -1.
         11    1    4    4    0    0  0.27098741099E-01 -0.51568834954E-01 -0.69793797638E-01  0.90912715378E-01  0.51100000000E-03 0.  1.
</event>
<event>
 8    1  0.1166736E+005  0.1043930E+01  0.7957747E-01            NaN
         13   -1    0    0    0    0  0.00000000000E+00  0.00000000000E+00  0.74505805969E-08  0.10566000000E+00  0.10566000000E+00 0.  1.
     999900   -1    0    0    0    0 -0.00000000000E+00 -0.00000000000E+00 -0.74505805969E-08  0.93827000000E+00  0.93827000000E+00 0. -1.
     999902    2    1    2    0    0 -0.18395169192E-02  0.19953412533E-02  0.24082347046E-01  0.10196952182E+01  0.10194071872E+01 0.  0.
     999903    2    3    3    0    0 -0.64518735441E-01 -0.98357503620E-01  0.54543382642E-01  0.13125430706E+00  0.20392321866E-01 0.  0.
         14    1    1    2    0    0  0.18395169192E-02 -0.19953412533E-02 -0.24082347046E-01  0.24234781791E-01  0.00000000000E+00 0. -1.
     999901    1    3    3    0    0  0.62679218522E-01  0.10035284487E+00 -0.30461035596E-01  0.88844091115E+00  0.88000000000E+00 0. -1.
        -11    1    4    4    0    0 -0.13830669467E-01 -0.35618776569E-01  0.23301779953E-01  0.44757331602E-01  0.51100000000E-03 0.  1.
         11    1    4    4    0    0 -0.50688065974E-01 -0.62738727052E-01  0.31241602689E-01  0.86496975461E-01  0.51100000000E-03 0. -1.
</event>
<event>
 8    1  0.1166736E+005  0.1043930E+01  0.7957747E-01            NaN
         13   -1    0    0    0    0  0.00000000000E+00  0.00000000000E+00  0.74505805969E-08  0.10566000000E+00  0.10566000000E+00 0.  1.
     999900   -1    0    0    0    0 -0.00000000000E+00 -0.00000000000E+00 -0.74505805969E-08  0.93827000000E+00  0.93827000000E+00 0. -1.
     999902    2    1    2    0    0 -0.11532471463E-01  0.10495657158E-01  0.25876411521E-01  0.10137183236E+01  0.10132680268E+01 0.  0.
     999903    2    3    3    0    0  0.67765994444E-01  0.10299435244E+00  0.82331484123E-02  0.12514894531E+00  0.19859686336E-01 0.  0.
         14    1    1    2    0    0  0.11532471463E-01 -0.10495657158E-01 -0.25876411521E-01  0.30211676392E-01  0.00000000000E+00 0. -1.
     999901    1    3    3    0    0 -0.79298465907E-01 -0.92498695280E-01  0.17643263108E-01  0.88856937830E+00  0.88000000000E+00 0.  1.
        -11    1    4    4    0    0  0.25633974861E-01  0.37862819294E-01  0.12669728200E-01  0.47449730091E-01  0.51100000000E-03 0.  1.
         11    1    4    4    0    0  0.42132019584E-01  0.65131533143E-01 -0.44365797875E-02  0.77699215215E-01  0.51100000000E-03 0. -1.
</event>
<event>
 8    1  0.1166736E+005  0.1043930E+01  0.7957747E-01            NaN
         13   -1    0    0    0    0  0.00000000000E+00  0.00000000000E+00  0.74505805969E-08  0.10566000000E+00  0.10566000000E+00 0. -1.
     999900   -1    0    0    0    0 -0.00000000000E+00 -0.00000000000E+00 -0.74505805969E-08  0.93827000000E+00  0.93827000000E+00 0. -1.
     999902    2    1    2    0    0  0.19757148439E-01 -0.62987355669E-02  0.15165372722E-01  0.10182393886E+01  0.10179152445E+01 0.  0.
     999903    2    3    3    0    0  0.11615037482E+00 -0.40339559661E-01 -0.37983643595E-01  0.13072868459E+00  0.23000916260E-01 0.  0.
         14    1    1    2    0    0 -0.19757148439E-01  0.62987355669E-02 -0.15165372722E-01  0.25690611397E-01  0.00000000000E+00 0.  1.
     999901    1    3    3    0    0 -0.96393226386E-01  0.34040824095E-01  0.53149016317E-01  0.88751070401E+00  0.88000000000E+00 0.  1.
        -11    1    4    4    0    0  0.85047755248E-01 -0.30654365146E-01 -0.17037232111E-01  0.91996408485E-01  0.51100000000E-03 0.  1.
         11    1    4    4    0    0  0.31102619577E-01 -0.96851945152E-02 -0.20946411484E-01  0.38732276107E-01  0.51100000000E-03 0. -1.
</event>
<event>
 8    1  0.1166736E+005  0.1043930E+01  0.7957747E-01            NaN
         13   -1    0    0    0    0  0.00000000000E+00  0.00000000000E+00  0.74505805969E-08  0.10566000000E+00  0.10566000000E+00 0.  1.
     999900   -1    0    0    0    0 -0.00000000000E+00 -0.00000000000E+00 -0.74505805969E-08  0.93827000000E+00  0.93827000000E+00 0.  1.
     999902    2    1    2    0    0  0.31260942873E-01  0.12348424260E-01 -0.13392603224E-01  0.10077486242E+01  0.10070989016E+01 0.  0.
     999903    2    3    3    0    0  0.30869270409E-01  0.21614539293E-03  0.11252502116E+00  0.11870273469E+00  0.21805968435E-01 0.  0.
         14    1    1    2    0    0 -0.31260942873E-01 -0.12348424260E-01  0.13392603224E-01  0.36181375763E-01  0.00000000000E+00 0. -1.
     999901    1    3    3    0    0  0.39167246329E-03  0.12132278867E-01 -0.12591762439E+00  0.88904588955E+00  0.88000000000E+00 0.  1.
        -11    1    4    4    0    0  0.14023405401E-01 -0.86242172391E-02  0.32372794934E-01  0.36322059342E-01  0.51100000000E-03 0. -1.
         11    1    4    4    0    0  0.16845865008E-01  0.88403626320E-02  0.80152226230E-01  0.82380675343E-01  0.51100000000E-03 0.  1.
</event>
<event>
 8    1  0.1166736E+005  0.1043930E+01  0.7957747E-01            NaN
         13   -1    0    0    0    0  0.00000000000E+00  0.00000000000E+00  0.74505805969E-08  0.10566000000E+00  0.10566000000E+00 0. -1.
     999900   -1    0    0    0    0 -0.00000000000E+00 -0.00000000000E+00 -0.74505805969E-08  0.93827000000E+00  0.93827000000E+00 0.  1.
     999902    2    1    2    0    0 -0.41659226054E-02 -0.20267244596E-01  0.11027665410E-01  0.10204837739E+01  0.10202143928E+01 0.  0.
     999903    2    3    3    0    0  0.12613400037E+00 -0.33269024350E-02  0.27460963523E-01  0.13057642005E+00  0.19371180289E-01 0.  0.
         14    1    1    2    0    0  0.41659226054E-02  0.20267244596E-01 -0.11027665410E-01  0.23446226115E-01  0.00000000000E+00 0. -1.
     999901    1    3    3    0    0 -0.13029992298E+00 -0.16940342161E-01 -0.16433298113E-01  0.88990735383E+00  0.88000000000E+00 0.  1.
        -11    1    4    4    0    0  0.83549115686E-01  0.10195068393E-02  0.26843115461E-01  0.87762794479E-01  0.51100000000E-03 0.  1.
         11    1    4    4    0    0  0.42584884687E-01 -0.43464092742E-02  0.61784806188E-03  0.42813625572E-01  0.51100000000E-03 0. -1.
</event>
<event>
 8    1  0.1166736E+005  0.1043930E+01  0.7957747E-01            NaN
         13   -1    0    0    0    0  0.00000000000E+00  0.00000000000E+00  0.74505805969E-08  0.10566000000E+00  0.10566000000E+00 0.  1.
     999900   -1    0    0    0    0 -0.00000000000E+00 -0.00000000000E+00 -0.74505805969E-08  0.93827000000E+00  0.93827000000E+00 0.  1.
     999902    2    1    2    0    0  0.88417944999E-02 -0.48442237171E-02 -0.21137739404E-01  0.10205110363E+01  0.10202422886E+01 0.  0.
     999903    2    3    3    0    0 -0.30936912730E-01 -0.72485827738E-01 -0.10528420571E+00  0.13302111527E+00  0.19964101382E-01 0.  0.
         14    1    1    2    0    0 -0.88417944999E-02  0.48442237171E-02  0.21137739404E-01  0.23418963694E-01  0.00000000000E+00 0.  1.
     999901    1    3    3    0    0  0.39778707230E-01  0.67641604021E-01  0.84146466307E-01  0.88748992103E+00  0.88000000000E+00 0.  1.
        -11    1    4    4    0    0 -0.12963088255E-01 -0.50095913499E-01 -0.76526852404E-01  0.92381072013E-01  0.51100000000E-03 0.  1.
         11    1    4    4    0    0 -0.17973824476E-01 -0.22389914239E-01 -0.28757353307E-01  0.40640043259E-01  0.51100000000E-03 0. -1.
</event>
<event>
 8    1  0.1166736E+005  0.1043930E+01  0.7957747E-01            NaN
         13   -1    0    0    0    0  0.00000000000E+00  0.00000000000E+00  0.74505805969E-08  0.10566000000E+00  0.10566000000E+00 0. -1.
     999900   -1    0    0    0    0 -0.00000000000E+00 -0.00000000000E+00 -0.74505805969E-08  0.93827000000E+00  0.93827000000E+00 0. -1.
     999902    2    1    2    0    0 -0.93658102564E-02 -0.13871496350E-01 -0.14741130583E-01  0.10216266876E+01  0.10213832048E+01 0.  0.
     999903    2    3    3    0    0 -0.90258622799E-01 -0.96530304714E-01  0.55215603643E-02  0.13382789150E+00  0.20364139995E-01 0.  0.
         14    1    1    2    0    0  0.93658102564E-02  0.13871496350E-01  0.14741130583E-01  0.22303312391E-01  0.00000000000E+00 0. -1.
     999901    1    3    3    0    0  0.80892812542E-01  0.82658808363E-01 -0.20262690948E-01  0.88779879611E+00  0.88000000000E+00 0. -1.
        -11    1    4    4    0    0 -0.12513789608E-01 -0.16241917766E-01 -0.62666911523E-02  0.21445917142E-01  0.51100000000E-03 0.  1.
         11    1    4    4    0    0 -0.77744833191E-01 -0.80288386948E-01  0.11788251517E-01  0.11238197436E+00  0.51100000000E-03 0. -1.
</event>
<event>
 8    1  0.1166736E+005  0.1043930E+01  0.7957747E-01            NaN
         13   -1    0    0    0    0  0.00000000000E+00  0.00000000000E+00  0.74505805969E-08  0.10566000000E+00  0.10566000000E+00 0. -1.
     999900   -1    0    0    0    0 -0.00000000000E+00 -0.00000000000E+00 -0.74505805969E-08  0.93827000000E+00  0.93827000000E+00 0.  1.
     999902    2    1    2    0    0  0.82517827264E-02 -0.20168450331E-01  0.98705872935E-02  0.10200074834E+01  0.10197269141E+01 0.  0.
     999903    2    3    3    0    0 -0.27339827510E-01  0.10931576869E+00  0.58242714996E-01  0.12850718142E+00  0.20602872953E-01 0.  0.
         14    1    1    2    0    0 -0.82517827264E-02  0.20168450331E-01 -0.98705872935E-02  0.23922516599E-01  0.00000000000E+00 0. -1.
     999901    1    3    3    0    0  0.35591610237E-01 -0.12948421902E+00 -0.48372127702E-01  0.89150030198E+00  0.88000000000E+00 0. -1.
        -11    1    4    4    0    0 -0.22871313574E-01  0.55399530726E-01  0.24548723807E-01  0.64769637569E-01  0.51100000000E-03 0. -1.
         11    1    4    4    0    0 -0.44685139368E-02  0.53916237963E-01  0.33693991188E-01  0.63737543851E-01  0.51100000000E-03 0.  1.
</event>
<event>
 8    1  0.1166736E+005  0.1043930E+01  0.7957747E-01            NaN
         13   -1    0    0    0    0  0.00000000000E+00  0.00000000000E+00  0.74505805969E-08  0.10566000000E+00  0.10566000000E+00 0. -1.
     999900   -1    0    0    0    0 -0.00000000000E+00 -0.00000000000E+00 -0.74505805969E-08  0.93827000000E+00  0.93827000000E+00 0. -1.
     999902    2    1    2    0    0  0.39343715294E-02 -0.14236588629E-01 -0.19595170260E-01  0.10193916538E+01  0.10190962729E+01 0.  0.
     999903    2    3    3    0    0  0.45715618678E-01  0.10743661801E+00 -0.52967600672E-01  0.12941201309E+00  0.17588568173E-01 0.  0.
         14    1    1    2    0    0 -0.39343715294E-02  0.14236588629E-01  0.19595170260E-01  0.24538346167E-01  0.00000000000E+00 0. -1.
     999901    1    3    3    0    0 -0.41781247148E-01 -0.12167320664E+00  0.33372430412E-01  0.88997964074E+00  0.88000000000E+00 0.  1.
        -11    1    4    4    0    0  0.27860755292E-01  0.83188914082E-01 -0.42885316457E-01  0.97652591365E-01  0.51100000000E-03 0.  1.
         11    1    4    4    0    0  0.17854863385E-01  0.24247703927E-01 -0.10082284215E-01  0.31759421724E-01  0.51100000000E-03 0. -1.
</event>
<event>
 8    1  0.1166736E+005  0.1043930E+01  0.7957747E-01            NaN
         13   -1    0    0    0    0  0.00000000000E+00  0.00000000000E+00  0.74505805969E-08  0.10566000000E+00  0.10566000000E+00 0.  1.
     999900   -1    0    0    0    0 -0.00000000000E+00 -0.00000000000E+00 -0.74505805969E-08  0.93827000000E+00  0.93827000000E+00 0. -1.
     999902    2    1    2    0    0 -0.15562452557E-01  0.17945817189E-01  0.14508806098E-02  0.10201319467E+01  0.10198543236E+01 0.  0.
     999903    2    3    3    0    0 -0.35338158454E-01  0.96642311785E-01 -0.80913840683E-01  0.13256889878E+00  0.20950929307E-01 0.  0.
         14    1    1    2    0    0  0.15562452557E-01 -0.17945817189E-01 -0.14508806098E-02  0.23798053255E-01  0.00000000000E+00 0.  1.
     999901    1    3    3    0    0  0.19775705897E-01 -0.78696494596E-01  0.82364721293E-01  0.88756304797E+00  0.88000000000E+00 0.  1.
        -11    1    4    4    0    0 -0.29921259468E-01  0.56935473656E-01 -0.42784810107E-01  0.77251090772E-01  0.51100000000E-03 0. -1.
         11    1    4    4    0    0 -0.54168989863E-02  0.39706838129E-01 -0.38129030576E-01  0.55317808005E-01  0.51100000000E-03 0.  1.
</event>
<event>
 8    1  0.1166736E+005  0.1043930E+01  0.7957747E-01            NaN
         13   -1    0    0    0    0  0.00000000000E+00  0.00000000000E+00  0.74505805969E-08  0.10566000000E+00  0.10566000000E+00 0.  1.
     999900   -1    0    0    0    0 -0.00000000000E+00 -0.00000000000E+00 -0.74505805969E-08  0.93827000000E+00  0.93827000000E+00 0. -1.
     999902    2    1    2    0    0 -0.13215987884E-01  0.11782941056E-01 -0.15855613304E-01  0.10201623643E+01  0.10198854587E+01 0.  0.
     999903    2    3    3    0    0  0.38373444217E-01 -0.94605816746E-01  0.74083357364E-01  0.12771121392E+00  0.19975698704E-01 0.  0.
         14    1    1    2    0    0  0.13215987884E-01 -0.11782941056E-01  0.15855613304E-01  0.23767635746E-01  0.00000000000E+00 0.  1.
     999901    1    3    3    0    0 -0.51589432102E-01  0.10638875780E+00 -0.89938970668E-01  0.89245115034E+00  0.88000000000E+00 0. -1.
        -11    1    4    4    0    0  0.32865109723E-01 -0.67207271923E-01  0.44672534639E-01  0.87136842429E-01  0.51100000000E-03 0.  1.
         11    1    4    4    0    0  0.55083344941E-02 -0.27398544823E-01  0.29410822726E-01  0.40574371489E-01  0.51100000000E-03 0. -1.
</event>
<event>
 8    1  0.1166736E+005  0.1043930E+01  0.7957747E-01            NaN
         13   -1    0    0    0    0  0.00000000000E+00  0.00000000000E+00  0.74505805969E-08  0.10566000000E+00  0.10566000000E+00 0. -1.
     999900   -1    0    0    0    0 -0.00000000000E+00 -0.00000000000E+00 -0.74505805969E-08  0.93827000000E+00  0.93827000000E+00 0.  1.
     999902    2    1    2    0    0 -0.36110211302E-02  0.16919662771E-01 -0.17341350261E-01  0.10194343496E+01  0.10191400081E+01 0.  0.
     999903    2    3    3    0    0 -0.12885016416E-01  0.70272738212E-01 -0.11038862567E+00  0.13287337979E+00  0.19115569458E-01 0.  0.
         14    1    1    2    0    0  0.36110211302E-02 -0.16919662771E-01  0.17341350261E-01  0.24495650446E-01  0.00000000000E+00 0. -1.
     999901    1    3    3    0    0  0.92739952858E-02 -0.53353075441E-01  0.93047275408E-01  0.88656096976E+00  0.88000000000E+00 0. -1.
        -11    1    4    4    0    0  0.59833504496E-03  0.32634417930E-01 -0.62294182722E-01  0.70329151569E-01  0.51100000000E-03 0.  1.
         11    1    4    4    0    0 -0.13483351461E-01  0.37638320282E-01 -0.48094442948E-01  0.62544228221E-01  0.51100000000E-03 0. -1.
</event>
<event>
 8    1  0.1166736E+005  0.1043930E+01  0.7957747E-01            NaN
         13   -1    0    0    0    0  0.00000000000E+00  0.00000000000E+00  0.74505805969E-08  0.10566000000E+00  0.10566000000E+00 0.  1.
     999900   -1    0    0    0    0 -0.00000000000E+00 -0.00000000000E+00 -0.74505805969E-08  0.93827000000E+00  0.93827000000E+00 0. -1.
     999902    2    1    2    0    0  0.21847683460E-01 -0.79339527748E-02  0.10008543753E-01  0.10186230874E+01  0.10183086734E+01 0.  0.
     999903    2    3    3    0    0  0.87589662157E-01  0.90035258520E-01 -0.26518252477E-01  0.12999820533E+00  0.20445512495E-01 0.  0.
         14    1    1    2    0    0 -0.21847683460E-01  0.79339527748E-02 -0.10008543753E-01  0.25306912637E-01  0.00000000000E+00 0. -1.
     999901    1    3    3    0    0 -0.65741978697E-01 -0.97969211295E-01  0.36526796229E-01  0.88862488203E+00  0.88000000000E+00 0.  1.
        -11    1    4    4    0    0  0.57395088797E-01  0.48077902754E-01 -0.89822308297E-02  0.75409697937E-01  0.51100000000E-03 0. -1.
         11    1    4    4    0    0  0.30194573359E-01  0.41957355766E-01 -0.17536021647E-01  0.54588507393E-01  0.51100000000E-03 0.  1.
</event>
<event>
 8    1  0.1166736E+005  0.1043930E+01  0.7957747E-01            NaN
         13   -1    0    0    0    0  0.00000000000E+00  0.00000000000E+00  0.74505805969E-08  0.10566000000E+00  0.10566000000E+00 0. -1.
     999900   -1    0    0    0    0 -0.00000000000E+00 -0.00000000000E+00 -0.74505805969E-08  0.93827000000E+00  0.93827000000E+00 0.  1.
     999902    2    1    2    0    0 -0.22448696386E-01  0.33009690177E-02  0.63933142837E-02  0.10203563954E+01  0.10200840450E+01 0.  0.
     999903    2    3    3    0    0  0.10680162173E+00 -0.25260935900E-01 -0.62227857033E-01  0.12781491609E+00  0.20485245868E-01 0.  0.
         14    1    1    2    0    0  0.22448696386E-01 -0.33009690177E-02 -0.63933142837E-02  0.23573604591E-01  0.00000000000E+00 0.  1.
     999901    1    3    3    0    0 -0.12925031812E+00  0.28561904918E-01  0.68621171316E-01  0.89254147932E+00  0.88000000000E+00 0. -1.
        -11    1    4    4    0    0  0.43328610257E-01 -0.38997864342E-02 -0.33641314456E-01  0.54996144959E-01  0.51100000000E-03 0.  1.
         11    1    4    4    0    0  0.63473011473E-01 -0.21361149466E-01 -0.28586542577E-01  0.72818771134E-01  0.51100000000E-03 0. -1.
</event>
<event>
 8    1  0.1166736E+005  0.1043930E+01  0.7957747E-01            NaN
         13   -1    0    0    0    0  0.00000000000E+00  0.00000000000E+00  0.74505805969E-08  0.10566000000E+00  0.10566000000E+00 0.  1.
     999900   -1    0    0    0    0 -0.00000000000E+00 -0.00000000000E+00 -0.74505805969E-08  0.93827000000E+00  0.93827000000E+00 0. -1.
     999902    2    1    2    0    0  0.13198758889E-01 -0.19987247513E-01  0.43303216241E-02  0.10195897250E+01  0.10192991506E+01 0.  0.
     999903    2    3    3    0    0  0.92709043174E-01  0.85402873148E-01  0.18463769913E-01  0.12962977247E+00  0.23965593708E-01 0.  0.
         14    1    1    2    0    0 -0.13198758889E-01  0.19987247513E-01 -0.43303216241E-02  0.24340274952E-01  0.00000000000E+00 0.  1.
     999901    1    3    3    0    0 -0.79510284286E-01 -0.10539012066E+00 -0.14133448289E-01  0.88995995258E+00  0.88000000000E+00 0. -1.
        -11    1    4    4    0    0  0.52328787140E-01  0.55696440422E-01  0.21542959380E-01  0.79402491517E-01  0.51100000000E-03 0. -1.
         11    1    4    4    0    0  0.40380256035E-01  0.29706432726E-01 -0.30791894668E-02  0.50227280949E-01  0.51100000000E-03 0.  1.
</event>
<event>
 8    1  0.1166736E+005  0.1043930E+01  0.7957747E-01            NaN
         13   -1    0    0    0    0  0.00000000000E+00  0.00000000000E+00  0.74505805969E-08  0.10566000000E+00  0.10566000000E+00 0.  1.
     999900   -1    0    0    0    0 -0.00000000000E+00 -0.00000000000E+00 -0.74505805969E-08  0.93827000000E+00  0.93827000000E+00 0.  1.
     999902    2    1    2    0    0  0.19852931423E-01 -0.12051605548E-01  0.15794075962E-02  0.10206517997E+01  0.10203863100E+01 0.  0.
     999903    2    3    3    0    0 -0.10611475723E-01 -0.92464939065E-01  0.91436509069E-01  0.13190623259E+00  0.19397181047E-01 0.  0.
         14    1    1    2    0    0 -0.19852931423E-01  0.12051605548E-01 -0.15794075962E-02  0.23278200333E-01  0.00000000000E+00 0.  1.
     999901    1    3    3    0    0  0.30464407146E-01  0.80413333517E-01 -0.89857101473E-01  0.88874556707E+00  0.88000000000E+00 0.  1.
        -11    1    4    4    0    0 -0.49486310013E-02 -0.69782776429E-01  0.56796962467E-01  0.90112601235E-01  0.51100000000E-03 0.  1.
         11    1    4    4    0    0 -0.56628447213E-02 -0.22682162636E-01  0.34639546602E-01  0.41793631357E-01  0.51100000000E-03 0. -1.
</event>
<event>
 8    1  0.1166736E+005  0.1043930E+01  0.7957747E-01            NaN
         13   -1    0    0    0    0  0.00000000000E+00  0.00000000000E+00  0.74505805969E-08  0.10566000000E+00  0.10566000000E+00 0.  1.
     999900   -1    0    0    0    0 -0.00000000000E+00 -0.00000000000E+00 -0.74505805969E-08  0.93827000000E+00  0.93827000000E+00 0.  1.
     999902    2    1    2    0    0  0.14029735377E-02  0.52409655072E-02 -0.22363663967E-01  0.10209176225E+01  0.10206582299E+01 0.  0.
     999903    2    3    3    0    0  0.43699015775E-01  0.11279252115E+00 -0.50722041923E-01  0.13290833765E+00  0.21450964357E-01 0.  0.
         14    1    1    2    0    0 -0.14029735377E-02 -0.52409655072E-02  0.22363663967E-01  0.23012377544E-01  0.00000000000E+00 0.  1.
     999901    1    3    3    0    0 -0.42296042237E-01 -0.10755155564E+00  0.28358377955E-01  0.88800928481E+00  0.88000000000E+00 0. -1.
        -11    1    4    4    0    0  0.27784358278E-01  0.45881556769E-01 -0.27751373644E-01  0.60394434153E-01  0.51100000000E-03 0.  1.
         11    1    4    4    0    0  0.15914657496E-01  0.66910964380E-01 -0.22970668279E-01  0.72513903492E-01  0.51100000000E-03 0. -1.
</event>
<event>
 8    1  0.1166736E+005  0.1043930E+01  0.7957747E-01            NaN
         13   -1    0    0    0    0  0.00000000000E+00  0.00000000000E+00  0.74505805969E-08  0.10566000000E+00  0.10566000000E+00 0.  1.
     999900   -1    0    0    0    0 -0.00000000000E+00 -0.00000000000E+00 -0.74505805969E-08  0.93827000000E+00  0.93827000000E+00 0. -1.
     999902    2    1    2    0    0  0.14555205758E-01  0.15213944295E-01 -0.12238455514E-01  0.10195763984E+01  0.10192855019E+01 0.  0.
     999903    2    3    3    0    0 -0.49297840057E-01  0.94601710315E-01 -0.74118752952E-01  0.13153991267E+00  0.20721931766E-01 0.  0.
         14    1    1    2    0    0 -0.14555205758E-01 -0.15213944295E-01  0.12238455514E-01  0.24353601561E-01  0.00000000000E+00 0.  1.
     999901    1    3    3    0    0  0.63853045815E-01 -0.79387766020E-01  0.61880297438E-01  0.88803648577E+00  0.88000000000E+00 0. -1.
        -11    1    4    4    0    0 -0.34851333479E-01  0.72417616660E-01 -0.65545738714E-01  0.10370839712E+00  0.51100000000E-03 0.  1.
         11    1    4    4    0    0 -0.14446506578E-01  0.22184093655E-01 -0.85730142372E-02  0.27831515548E-01  0.51100000000E-03 0. -1.
</event>
<event>
 8    1  0.1166736E+005  0.1043930E+01  0.7957747E-01            NaN
         13   -1    0    0    0    0  0.00000000000E+00  0.00000000000E+00  0.74505805969E-08  0.10566000000E+00  0.10566000000E+00 0.  1.
     999900   -1    0    0    0    0 -0.00000000000E+00 -0.00000000000E+00 -0.74505805969E-08  0.93827000000E+00  0.93827000000E+00 0. -1.
     999902    2    1    2    0    0 -0.73347567365E-02  0.81279462551E-02  0.20680585063E-01  0.10205302401E+01  0.10202619380E+01 0.  0.
     999903    2    3    3    0    0 -0.63762632932E-01  0.10732398996E+00  0.41334458458E-01  0.13292078609E+00  0.19372293036E-01 0.  0.
         14    1    1    2    0    0  0.73347567365E-02 -0.81279462551E-02 -0.20680585063E-01  0.23399759940E-01  0.00000000000E+00 0. -1.
     999901    1    3    3    0    0  0.56427876195E-01 -0.99196043708E-01 -0.20653873395E-01  0.88760945397E+00  0.88000000000E+00 0. -1.
        -11    1    4    4    0    0 -0.17083879877E-01  0.37836966950E-01  0.55726499807E-02  0.41890459157E-01  0.51100000000E-03 0. -1.
         11    1    4    4    0    0 -0.46678753055E-01  0.69487023013E-01  0.35761808477E-01  0.91030326928E-01  0.51100000000E-03 0.  1.
</event>
<event>
 8    1  0.1166736E+005  0.1043930E+01  0.7957747E-01            NaN
         13   -1    0    0    0    0  0.00000000000E+00  0.00000000000E+00  0.74505805969E-08  0.10566000000E+00  0.10566000000E+00 0. -1.
     999900   -1    0    0    0    0 -0.00000000000E+00 -0.00000000000E+00 -0.74505805969E-08  0.93827000000E+00  0.93827000000E+00 0.  1.
     999902    2    1    2    0    0  0.69482867807E-02 -0.20051701604E-01 -0.32721325051E-02  0.10224577789E+01  0.10222322894E+01 0.  0.
     999903    2    3    3    0    0 -0.62577337292E-01  0.11191069312E+00  0.59915476189E-02  0.12985837170E+00  0.19681760093E-01 0.  0.
         14    1    1    2    0    0 -0.69482867807E-02  0.20051701604E-01  0.32721325051E-02  0.21472221067E-01  0.00000000000E+00 0. -1.
     999901    1    3    3    0    0  0.69525624073E-01 -0.13196239472E+00 -0.92636801240E-02  0.89259940723E+00  0.88000000000E+00 0.  1.
        -11    1    4    4    0    0 -0.48425718445E-01  0.99118581570E-01  0.83379407999E-02  0.11063148646E+00  0.51100000000E-03 0. -1.
         11    1    4    4    0    0 -0.14151618847E-01  0.12792111550E-01 -0.23463931810E-02  0.19226885236E-01  0.51100000000E-03 0.  1.
</event>
<event>
 8    1  0.1166736E+005  0.1043930E+01  0.7957747E-01            NaN
         13   -1    0    0    0    0  0.00000000000E+00  0.00000000000E+00  0.74505805969E-08  0.10566000000E+00  0.10566000000E+00 0.  1.
     999900   -1    0    0    0    0 -0.00000000000E+00 -0.00000000000E+00 -0.74505805969E-08  0.93827000000E+00  0.93827000000E+00 0. -1.
     999902    2    1    2    0    0 -0.18071226982E-01  0.78718110352E-02  0.10500426365E-01  0.10215963123E+01  0.10213521585E+01 0.  0.
     999903    2    3    3    0    0  0.81344776208E-01 -0.92954236013E-01 -0.31870174221E-01  0.12927086646E+00  0.20923343454E-01 0.  0.
         14    1    1    2    0    0  0.18071226982E-01 -0.78718110352E-02 -0.10500426365E-01  0.22333687726E-01  0.00000000000E+00 0. -1.
     999901    1    3    3    0    0 -0.99416003190E-01  0.10082604705E+00  0.42370600586E-01  0.89232544581E+00  0.88000000000E+00 0.  1.
        -11    1    4    4    0    0  0.15225281086E-01 -0.31573725609E-01 -0.93932479889E-02  0.36293299130E-01  0.51100000000E-03 0. -1.
         11    1    4    4    0    0  0.66119495123E-01 -0.61380510404E-01 -0.22476926232E-01  0.92977567330E-01  0.51100000000E-03 0.  1.
</event>
<event>
 8    1  0.1166736E+005  0.1043930E+01  0.7957747E-01            NaN
         13   -1    0    0    0    0  0.00000000000E+00  0.00000000000E+00  0.74505805969E-08  0.10566000000E+00  0.10566000000E+00 0.  1.
     999900   -1    0    0    0    0 -0.00000000000E+00 -0.00000000000E+00 -0.74505805969E-08  0.93827000000E+00  0.93827000000E+00 0.  1.
     999902    2    1    2    0    0  0.21106679314E-01  0.65018011677E-02 -0.70637154345E-02  0.10207424731E+01  0.10204790713E+01 0.  0.
     999903    2    3    3    0    0 -0.71713681056E-01 -0.82890874205E-01  0.64070806349E-01  0.12851672253E+00  0.19943185969E-01 0.  0.
         14    1    1    2    0    0 -0.21106679314E-01 -0.65018011677E-02  0.70637154345E-02  0.23187526945E-01  0.00000000000E+00 0.  1.
     999901    1    3    3    0    0  0.92820360371E-01  0.89392675373E-01 -0.71134521784E-01  0.89222575052E+00  0.88000000000E+00 0.  1.
        -11    1    4    4    0    0 -0.48634177927E-01 -0.47093705521E-01  0.48001853733E-01  0.82991201010E-01  0.51100000000E-03 0. -1.
         11    1    4    4    0    0 -0.23079503129E-01 -0.35797168684E-01  0.16068952616E-01  0.45525521520E-01  0.51100000000E-03 0.  1.
</event>
<event>
 8    1  0.1166736E+005  0.1043930E+01  0.7957747E-01            NaN
         13   -1    0    0    0    0  0.00000000000E+00  0.00000000000E+00  0.74505805969E-08  0.10566000000E+00  0.10566000000E+00 0. -1.
     999900   -1    0    0    0    0 -0.00000000000E+00 -0.00000000000E+00 -0.74505805969E-08  0.93827000000E+00  0.93827000000E+00 0. -1.
     999902    2    1    2    0    0 -0.14652722113E-01 -0.10351174121E-01 -0.12501015530E-01  0.10220639427E+01  0.10218300145E+01 0.  0.
     999903    2    3    3    0    0 -0.19678612711E-01  0.17883555478E-01 -0.12976069615E+00  0.13382281994E+00  0.19069334417E-01 0.  0.
         14    1    1    2    0    0  0.14652722113E-01  0.10351174121E-01  0.12501015530E-01  0.21866057264E-01  0.00000000000E+00 0. -1.
     999901    1    3    3    0    0  0.50258905977E-02 -0.28234729599E-01  0.11725968062E+00  0.88824112280E+00  0.88000000000E+00 0.  1.
        -11    1    4    4    0    0  0.29821600857E-02  0.68441221554E-02 -0.32027623719E-01  0.32890197460E-01  0.51100000000E-03 0.  1.
         11    1    4    4    0    0 -0.22660772796E-01  0.11039433323E-01 -0.97733072433E-01  0.10093262248E+00  0.51100000000E-03 0. -1.
</event>
<event>
 8    1  0.1166736E+005  0.1043930E+01  0.7957747E-01            NaN
         13   -1    0    0    0    0  0.00000000000E+00  0.00000000000E+00  0.74505805969E-08  0.10566000000E+00  0.10566000000E+00 0. -1.
     999900   -1    0    0    0    0 -0.00000000000E+00 -0.00000000000E+00 -0.74505805969E-08  0.93827000000E+00  0.93827000000E+00 0. -1.
     999902    2    1    2    0    0 -0.17886790729E-01  0.78925017448E-02  0.92954416833E-02  0.10222820416E+01  0.10220528061E+01 0.  0.
     999903    2    3    3    0    0 -0.13091835602E+00  0.10730490183E-01  0.25493979993E-01  0.13490017253E+00  0.17127585065E-01 0.  0.
         14    1    1    2    0    0  0.17886790729E-01 -0.78925017448E-02 -0.92954416833E-02  0.21647958390E-01  0.00000000000E+00 0. -1.
     999901    1    3    3    0    0  0.11303156529E+00 -0.28379884384E-02 -0.16198538310E-01  0.88738186908E+00  0.88000000000E+00 0.  1.
        -11    1    4    4    0    0 -0.10944129408E+00  0.91883282430E-02  0.14695311030E-01  0.11080629726E+00  0.51100000000E-03 0. -1.
         11    1    4    4    0    0 -0.21477061942E-01  0.15421619402E-02  0.10798668963E-01  0.24093875269E-01  0.51100000000E-03 0.  1.
</event>
<event>
 8    1  0.1166736E+005  0.1043930E+01  0.7957747E-01            NaN
         13   -1    0    0    0    0  0.00000000000E+00  0.00000000000E+00  0.74505805969E-08  0.10566000000E+00  0.10566000000E+00 0. -1.
     999900   -1    0    0    0    0 -0.00000000000E+00 -0.00000000000E+00 -0.74505805969E-08  0.93827000000E+00  0.93827000000E+00 0.  1.
     999902    2    1    2    0    0  0.27383460264E-02 -0.19290113951E-01  0.10893246694E-01  0.10216080409E+01  0.10213641463E+01 0.  0.
     999903    2    3    3    0    0  0.31811131044E-01  0.12103806600E+00  0.27665592131E-01  0.12985777512E+00  0.20868523995E-01 0.  0.
         14    1    1    2    0    0 -0.27383460264E-02  0.19290113951E-01 -0.10893246694E-01  0.22321959115E-01  0.00000000000E+00 0.  1.
     999901    1    3    3    0    0 -0.29072785017E-01 -0.14032817995E+00 -0.16772345437E-01  0.89175026576E+00  0.88000000000E+00 0.  1.
        -11    1    4    4    0    0  0.18502750963E-01  0.94343990100E-01  0.14422260880E-01  0.97218326416E-01  0.51100000000E-03 0.  1.
         11    1    4    4    0    0  0.13308380081E-01  0.26694075895E-01  0.13243331251E-01  0.32639448707E-01  0.51100000000E-03 0. -1.
</event>
<event>
 8    1  0.1166736E+005  0.1043930E+01  0.7957747E-01            NaN
         13   -1    0    0    0    0  0.00000000000E+00  0.00000000000E+00  0.74505805969E-08  0.10566000000E+00  0.10566000000E+00 0.  1.
     999900   -1    0    0    0    0 -0.00000000000E+00 -0.00000000000E+00 -0.74505805969E-08  0.93827000000E+00  0.93827000000E+00 0.  1.
     999902    2    1    2    0    0 -0.11846397088E-01  0.12659434732E-01 -0.15144178632E-01  0.10209094753E+01  0.10206498970E+01 0.  0.
     999903    2    3    3    0    0 -0.15221596391E-01  0.35855577669E-01  0.12169499884E+00  0.13002541240E+00  0.24075208836E-01 0.  0.
         14    1    1    2    0    0  0.11846397088E-01 -0.12659434732E-01  0.15144178632E-01  0.23020524714E-01  0.00000000000E+00 0.  1.
     999901    1    3    3    0    0  0.33751993028E-02 -0.23196142938E-01 -0.13683917747E+00  0.89088406289E+00  0.88000000000E+00 0.  1.
        -11    1    4    4    0    0 -0.10104959923E-01  0.26757686605E-01  0.50267124288E-01  0.57837089421E-01  0.51100000000E-03 0.  1.
         11    1    4    4    0    0 -0.51166364685E-02  0.90978910639E-02  0.71427874550E-01  0.72188322977E-01  0.51100000000E-03 0. -1.
</event>
<event>
 8    1  0.1166736E+005  0.1043930E+01  0.7957747E-01            NaN
         13   -1    0    0    0    0  0.00000000000E+00  0.00000000000E+00  0.74505805969E-08  0.10566000000E+00  0.10566000000E+00 0.  1.
     999900   -1    0    0    0    0 -0.00000000000E+00 -0.00000000000E+00 -0.74505805969E-08  0.93827000000E+00  0.93827000000E+00 0.  1.
     999902    2    1    2    0    0 -0.78363128231E-02 -0.11072723684E-01  0.19767064794E-01  0.10199560588E+01  0.10196742676E+01 0.  0.
     999903    2    3    3    0    0 -0.84174995056E-01  0.11381429680E-02  0.10094628160E+00  0.13284458610E+00  0.19256352841E-01 0.  0.
         14    1    1    2    0    0  0.78363128231E-02  0.11072723684E-01 -0.19767064794E-01  0.23973941249E-01  0.00000000000E+00 0. -1.
     999901    1    3    3    0    0  0.76338682233E-01 -0.12210866652E-01 -0.81179216807E-01  0.88711147265E+00  0.88000000000E+00 0.  1.
        -11    1    4    4    0    0 -0.31939448583E-01  0.93376466616E-02  0.34656186049E-01  0.48048229660E-01  0.51100000000E-03 0. -1.
         11    1    4    4    0    0 -0.52235546474E-01 -0.81995036936E-02  0.66290095551E-01  0.84796356439E-01  0.51100000000E-03 0.  1.
</event>
<event>
 8    1  0.1166736E+005  0.1043930E+01  0.7957747E-01            NaN
         13   -1    0    0    0    0  0.00000000000E+00  0.00000000000E+00  0.74505805969E-08  0.10566000000E+00  0.10566000000E+00 0. -1.
     999900   -1    0    0    0    0 -0.00000000000E+00 -0.00000000000E+00 -0.74505805969E-08  0.93827000000E+00  0.93827000000E+00 0.  1.
     999902    2    1    2    0    0 -0.34039599666E-02  0.21172626816E-01  0.13413433892E-02  0.10224435794E+01  0.10222177883E+01 0.  0.
     999903    2    3    3    0    0  0.91014760427E-01 -0.75630393469E-01  0.51766061528E-01  0.13068779906E+00  0.19898056839E-01 0.  0.
         14    1    1    2    0    0  0.34039599666E-02 -0.21172626816E-01 -0.13413433892E-02  0.21486420638E-01  0.00000000000E+00 0. -1.
     999901    1    3    3    0    0 -0.94418720394E-01  0.96803020285E-01 -0.50424718139E-01  0.89175578030E+00  0.88000000000E+00 0.  1.
        -11    1    4    4    0    0  0.50229641685E-01 -0.36875497226E-01  0.17162810380E-01  0.64634684037E-01  0.51100000000E-03 0. -1.
         11    1    4    4    0    0  0.40785118742E-01 -0.38754896243E-01  0.34603251148E-01  0.66053115026E-01  0.51100000000E-03 0.  1.
</event>
<event>
 8    1  0.1166736E+005  0.1043930E+01  0.7957747E-01            NaN
         13   -1    0    0    0    0  0.00000000000E+00  0.00000000000E+00  0.74505805969E-08  0.10566000000E+00  0.10566000000E+00 0. -1.
     999900   -1    0    0    0    0 -0.00000000000E+00 -0.00000000000E+00 -0.74505805969E-08  0.93827000000E+00  0.93827000000E+00 0. -1.
     999902    2    1    2    0    0  0.13749567413E-01 -0.15356198557E-01  0.10240343128E-01  0.10209141779E+01  0.10206547069E+01 0.  0.
     999903    2    3    3    0    0  0.23441536705E-01  0.92535368963E-01  0.87412549162E-01  0.13091975436E+00  0.19665405593E-01 0.  0.
         14    1    1    2    0    0 -0.13749567413E-01  0.15356198557E-01 -0.10240343128E-01  0.23015822070E-01  0.00000000000E+00 0.  1.
     999901    1    3    3    0    0 -0.96919692924E-02 -0.10789156752E+00 -0.77172206034E-01  0.88999442358E+00  0.88000000000E+00 0. -1.
        -11    1    4    4    0    0  0.19400142691E-01  0.40410100822E-01  0.34847236297E-01  0.56779686363E-01  0.51100000000E-03 0.  1.
         11    1    4    4    0    0  0.40413940142E-02  0.52125268141E-01  0.52565312865E-01  0.74140067992E-01  0.51100000000E-03 0. -1.
</event>
<event>
 8    1  0.1166736E+005  0.1043930E+01  0.7957747E-01            NaN
         13   -1    0    0    0    0  0.00000000000E+00  0.00000000000E+00  0.74505805969E-08  0.10566000000E+00  0.10566000000E+00 0. -1.
     999900   -1    0    0    0    0 -0.00000000000E+00 -0.00000000000E+00 -0.74505805969E-08  0.93827000000E+00  0.93827000000E+00 0.  1.
     999902    2    1    2    0    0 -0.24572767783E-02 -0.13771558218E-01 -0.19218377225E-01  0.10201594289E+01  0.10198824542E+01 0.  0.
     999903    2    3    3    0    0 -0.93519424034E-01  0.51852937199E-01  0.68751850307E-01  0.12867883466E+00  0.19920235969E-01 0.  0.
         14    1    1    2    0    0  0.24572767783E-02  0.13771558218E-01  0.19218377225E-01  0.23770571051E-01  0.00000000000E+00 0. -1.
     999901    1    3    3    0    0  0.91062147256E-01 -0.65624495416E-01 -0.87970227532E-01  0.89148059429E+00  0.88000000000E+00 0.  1.
        -11    1    4    4    0    0 -0.76032811280E-01  0.41295858004E-01  0.64209882556E-01  0.10774741954E+00  0.51100000000E-03 0.  1.
         11    1    4    4    0    0 -0.17486612754E-01  0.10557079195E-01  0.45419677509E-02  0.20931415117E-01  0.51100000000E-03 0. -1.
</event>
<event>
 8    1  0.1166736E+005  0.1043930E+01  0.7957747E-01            NaN
         13   -1    0    0    0    0  0.00000000000E+00  0.00000000000E+00  0.74505805969E-08  0.10566000000E+00  0.10566000000E+00 0. -1.
     999900   -1    0    0    0    0 -0.00000000000E+00 -0.00000000000E+00 -0.74505805969E-08  0.93827000000E+00  0.93827000000E+00 0.  1.
     999902    2    1    2    0    0 -0.14353700061E-01  0.14786655562E-01  0.99983749464E-02  0.10210249484E+01  0.10207679971E+01 0.  0.
     999903    2    3    3    0    0 -0.43081865480E-01  0.12303603349E+00 -0.20385304072E-01  0.13340656007E+00  0.19693577104E-01 0.  0.
         14    1    1    2    0    0  0.14353700061E-01 -0.14786655562E-01 -0.99983749464E-02  0.22905051620E-01  0.00000000000E+00 0.  1.
     999901    1    3    3    0    0  0.28728165418E-01 -0.10824937792E+00  0.30383679018E-01  0.88761838831E+00  0.88000000000E+00 0. -1.
        -11    1    4    4    0    0 -0.41199639142E-01  0.11101867377E+00 -0.23748726140E-01  0.12077590532E+00  0.51100000000E-03 0. -1.
         11    1    4    4    0    0 -0.18822263374E-02  0.12017359712E-01  0.33634220679E-02  0.12630654751E-01  0.51100000000E-03 0.  1.
</event>
<event>
 8    1  0.1166736E+005  0.1043930E+01  0.7957747E-01            NaN
         13   -1    0    0    0    0  0.00000000000E+00  0.00000000000E+00  0.74505805969E-08  0.10566000000E+00  0.10566000000E+00 0. -1.
     999900   -1    0    0    0    0 -0.00000000000E+00 -0.00000000000E+00 -0.74505805969E-08  0.93827000000E+00  0.93827000000E+00 0. -1.
     999902    2    1    2    0    0 -0.21395531166E-01  0.10986125429E-01 -0.11428378129E-01  0.10173016029E+01  0.10169530371E+01 0.  0.
     999903    2    3    3    0    0 -0.97036740547E-01 -0.73107375131E-01 -0.40429901139E-01  0.12958858748E+00  0.19945119328E-01 0.  0.
         14    1    1    2    0    0  0.21395531166E-01 -0.10986125429E-01  0.11428378129E-01  0.26628397107E-01  0.00000000000E+00 0. -1.
     999901    1    3    3    0    0  0.75641209381E-01  0.84093500559E-01  0.29001523010E-01  0.88771301541E+00  0.88000000000E+00 0.  1.
        -11    1    4    4    0    0 -0.32917716723E-01 -0.13607392479E-01 -0.12839934913E-01  0.37866373657E-01  0.51100000000E-03 0. -1.
         11    1    4    4    0    0 -0.64119023824E-01 -0.59499982651E-01 -0.27589966225E-01  0.91722213825E-01  0.51100000000E-03 0.  1.
</event>
<event>
 8    1  0.1166736E+005  0.1043930E+01  0.7957747E-01            NaN
         13   -1    0    0    0    0  0.00000000000E+00  0.00000000000E+00  0.74505805969E-08  0.10566000000E+00  0.10566000000E+00 0.  1.
     999900   -1    0    0    0    0 -0.00000000000E+00 -0.00000000000E+00 -0.74505805969E-08  0.93827000000E+00  0.93827000000E+00 0. -1.
     999902    2    1    2    0    0  0.10632577095E-01  0.19496518092E-01  0.10427611489E-01  0.10193963294E+01  0.10191010624E+01 0.  0.
     999903    2    3    3    0    0  0.40920071478E-01 -0.11714544023E+00 -0.22678978755E-01  0.12772127454E+00  0.20022024784E-01 0.  0.
         14    1    1    2    0    0 -0.10632577095E-01 -0.19496518092E-01 -0.10427611489E-01  0.24533670633E-01  0.00000000000E+00 0. -1.
     999901    1    3    3    0    0 -0.30287494382E-01  0.13664195832E+00  0.33106590244E-01  0.89167505483E+00  0.88000000000E+00 0. -1.
        -11    1    4    4    0    0  0.38439853753E-01 -0.84687128275E-01 -0.19337272166E-01  0.94993280119E-01  0.51100000000E-03 0.  1.
         11    1    4    4    0    0  0.24802177252E-02 -0.32458311951E-01 -0.33417065889E-02  0.32727994418E-01  0.51100000000E-03 0. -1.
</event>
<event>
 8    1  0.1166736E+005  0.1043930E+01  0.7957747E-01            NaN
         13   -1    0    0    0    0  0.00000000000E+00  0.00000000000E+00  0.74505805969E-08  0.10566000000E+00  0.10566000000E+00 0.  1.
     999900   -1    0    0    0    0 -0.00000000000E+00 -0.00000000000E+00 -0.74505805969E-08  0.93827000000E+00  0.93827000000E+00 0.  1.
     999902    2    1    2    0    0  0.59214204449E-02  0.20675644801E-01  0.92608239498E-02  0.10205140147E+01  0.10202453361E+01 0.  0.
     999903    2    3    3    0    0  0.97351415001E-01 -0.83302217408E-01  0.28976983965E-03  0.12964291315E+00  0.19764704307E-01 0.  0.
         14    1    1    2    0    0 -0.59214204449E-02 -0.20675644801E-01 -0.92608239498E-02  0.23415985314E-01  0.00000000000E+00 0. -1.
     999901    1    3    3    0    0 -0.91429994556E-01  0.10397786221E+00  0.89710541102E-02  0.89087110153E+00  0.88000000000E+00 0.  1.
        -11    1    4    4    0    0  0.36245303742E-01 -0.43892699373E-01  0.54441375272E-03  0.56928451665E-01  0.51100000000E-03 0. -1.
         11    1    4    4    0    0  0.61106111260E-01 -0.39409518035E-01 -0.25464391307E-03  0.72714461488E-01  0.51100000000E-03 0.  1.
</event>
<event>
 8    1  0.1166736E+005  0.1043930E+01  0.7957747E-01            NaN
         13   -1    0    0    0    0  0.00000000000E+00  0.00000000000E+00  0.74505805969E-08  0.10566000000E+00  0.10566000000E+00 0. -1.
     999900   -1    0    0    0    0 -0.00000000000E+00 -0.00000000000E+00 -0.74505805969E-08  0.93827000000E+00  0.93827000000E+00 0.  1.
     999902    2    1    2    0    0 -0.11039721581E-01  0.19919323223E-01  0.26237375805E-01  0.10091873061E+01  0.10085890957E+01 0.  0.
     999903    2    3    3    0    0  0.59664572180E-01  0.85294031518E-01  0.62892916979E-01  0.12317569312E+00  0.19539687382E-01 0.  0.
         14    1    1    2    0    0  0.11039721581E-01 -0.19919323223E-01 -0.26237375805E-01  0.34742693899E-01  0.00000000000E+00 0.  1.
     999901    1    3    3    0    0 -0.70704293761E-01 -0.65374708295E-01 -0.36655541174E-01  0.88601161298E+00  0.88000000000E+00 0.  1.
        -11    1    4    4    0    0  0.16825677351E-01  0.38491321160E-01  0.19568400241E-01  0.46345103646E-01  0.51100000000E-03 0. -1.
         11    1    4    4    0    0  0.42838894829E-01  0.46802710358E-01  0.43324516739E-01  0.76830589473E-01  0.51100000000E-03 0.  1.
</event>
<event>
 8    1  0.1166736E+005  0.1043930E+01  0.7957747E-01            NaN
         13   -1    0    0    0    0  0.00000000000E+00  0.00000000000E+00  0.74505805969E-08  0.10566000000E+00  0.10566000000E+00 0.  1.
     999900   -1    0    0    0    0 -0.00000000000E+00 -0.00000000000E+00 -0.74505805969E-08  0.93827000000E+00  0.93827000000E+00 0.  1.
     999902    2    1    2    0    0 -0.12724611170E-01 -0.10215552237E-01  0.16663734031E-01  0.10206071942E+01  0.10203406743E+01 0.  0.
     999903    2    3    3    0    0  0.43851964997E-01 -0.63928747831E-01 -0.10126476239E+00  0.12931984067E+00  0.21428706339E-01 0.  0.
         14    1    1    2    0    0  0.12724611170E-01  0.10215552237E-01 -0.16663734031E-01  0.23322805765E-01  0.00000000000E+00 0. -1.
     999901    1    3    3    0    0 -0.56576576167E-01  0.53713195594E-01  0.11792849643E+00  0.89128735356E+00  0.88000000000E+00 0. -1.
        -11    1    4    4    0    0  0.74275170945E-02 -0.19578380418E-01 -0.15226319030E-01  0.25895615501E-01  0.51100000000E-03 0.  1.
         11    1    4    4    0    0  0.36424447903E-01 -0.44350367413E-01 -0.86038443364E-01  0.10342422517E+00  0.51100000000E-03 0. -1.
</event>
<event>
 8    1  0.1166736E+005  0.1043930E+01  0.7957747E-01            NaN
         13   -1    0    0    0    0  0.00000000000E+00  0.00000000000E+00  0.74505805969E-08  0.10566000000E+00  0.10566000000E+00 0.  1.
     999900   -1    0    0    0    0 -0.00000000000E+00 -0.00000000000E+00 -0.74505805969E-08  0.93827000000E+00  0.93827000000E+00 0. -1.
     999902    2    1    2    0    0 -0.66285343312E-02 -0.21278397595E-03 -0.21942336595E-01  0.10210073283E+01  0.10207499770E+01 0.  0.
     999903    2    3    3    0    0 -0.21834419331E-01 -0.11584259844E+00 -0.59526824510E-01  0.13251756092E+00  0.11009615589E-01 0.  0.
         14    1    1    2    0    0  0.66285343312E-02  0.21278397595E-03  0.21942336595E-01  0.22922671739E-01  0.00000000000E+00 0.  1.
     999901    1    3    3    0    0  0.15205885000E-01  0.11562981447E+00  0.37584487915E-01  0.88848976734E+00  0.88000000000E+00 0. -1.
        -11    1    4    4    0    0 -0.42488260929E-02 -0.17651400310E-01 -0.13643748620E-01  0.22716457767E-01  0.51100000000E-03 0.  1.
         11    1    4    4    0    0 -0.17585593238E-01 -0.98191198133E-01 -0.45883075889E-01  0.10980110316E+00  0.51100000000E-03 0. -1.
</event>
<event>
 8    1  0.1166736E+005  0.1043930E+01  0.7957747E-01            NaN
         13   -1    0    0    0    0  0.00000000000E+00  0.00000000000E+00  0.74505805969E-08  0.10566000000E+00  0.10566000000E+00 0.  1.
     999900   -1    0    0    0    0 -0.00000000000E+00 -0.00000000000E+00 -0.74505805969E-08  0.93827000000E+00  0.93827000000E+00 0. -1.
     999902    2    1    2    0    0  0.15335309168E-01  0.62321532378E-02 -0.22307488260E-01  0.10161516726E+01  0.10157719164E+01 0.  0.
     999903    2    3    3    0    0 -0.25550882581E-01  0.43529530793E-03 -0.12562997660E+00  0.12914500924E+00  0.15572581887E-01 0.  0.
         14    1    1    2    0    0 -0.15335309168E-01 -0.62321532378E-02  0.22307488260E-01  0.27778327411E-01  0.00000000000E+00 0.  1.
     999901    1    3    3    0    0  0.40886191749E-01  0.57968579298E-02  0.10332248834E+00  0.88700666335E+00  0.88000000000E+00 0.  1.
        -11    1    4    4    0    0 -0.11338344749E-01  0.46847567241E-02 -0.30747031302E-01  0.33108096624E-01  0.51100000000E-03 0. -1.
         11    1    4    4    0    0 -0.14212537832E-01 -0.42494614162E-02 -0.94882945300E-01  0.96036912611E-01  0.51100000000E-03 0.  1.
</event>
<event>
 8    1  0.1166736E+005  0.1043930E+01  0.7957747E-01            NaN
         13   -1    0    0    0    0  0.00000000000E+00  0.00000000000E+00  0.74505805969E-08  0.10566000000E+00  0.10566000000E+00 0.  1.
     999900   -1    0    0    0    0 -0.00000000000E+00 -0.00000000000E+00 -0.74505805969E-08  0.93827000000E+00  0.93827000000E+00 0.  1.
     999902    2    1    2    0    0  0.71408423183E-02  0.16661521304E-01  0.14642059783E-01  0.10206279006E+01  0.10203618592E+01 0.  0.
     999903    2    3    3    0    0 -0.10408201109E+00  0.31970915536E-02 -0.73761407701E-01  0.12913085236E+00  0.19767279478E-01 0.  0.
         14    1    1    2    0    0 -0.71408423183E-02 -0.16661521304E-01 -0.14642059783E-01  0.23302099387E-01  0.00000000000E+00 0. -1.
     999901    1    3    3    0    0  0.11122285340E+00  0.13464429750E-01  0.88403467483E-01  0.89149704826E+00  0.88000000000E+00 0. -1.
        -11    1    4    4    0    0 -0.29697123994E-01 -0.52264367004E-03 -0.32320869468E-01  0.43898656632E-01  0.51100000000E-03 0. -1.
         11    1    4    4    0    0 -0.74384887092E-01  0.37197352237E-02 -0.41440538232E-01  0.85232195724E-01  0.51100000000E-03 0.  1.
</event>
<event>
 8    1  0.1166736E+005  0.1043930E+01  0.7957747E-01            NaN
         13   -1    0    0    0    0  0.00000000000E+00  0.00000000000E+00  0.74505805969E-08  0.10566000000E+00  0.10566000000E+00 0.  1.
     999900   -1    0    0    0    0 -0.00000000000E+00 -0.00000000000E+00 -0.74505805969E-08  0.93827000000E+00  0.93827000000E+00 0. -1.
     999902    2    1    2    0    0 -0.19345737757E-01  0.11206077420E-01 -0.92328784047E-02  0.10197415775E+01  0.10194546606E+01 0.  0.
     999903    2    3    3    0    0  0.10612632721E-01 -0.79440537396E-01  0.97899493060E-01  0.12811853058E+00  0.20164825367E-01 0.  0.
         14    1    1    2    0    0  0.19345737757E-01 -0.11206077420E-01  0.92328784047E-02  0.24188422523E-01  0.00000000000E+00 0.  1.
     999901    1    3    3    0    0 -0.29958370478E-01  0.90646614816E-01 -0.10713237146E+00  0.89162304690E+00  0.88000000000E+00 0. -1.
        -11    1    4    4    0    0  0.82853037616E-02 -0.61430730560E-01  0.87351046412E-01  0.10711137823E+00  0.51100000000E-03 0.  1.
         11    1    4    4    0    0  0.23273289590E-02 -0.18009806836E-01  0.10548446648E-01  0.21007152354E-01  0.51100000000E-03 0. -1.
</event>
<event>
 8    1  0.1166736E+005  0.1043930E+01  0.7957747E-01            NaN
         13   -1    0    0    0    0  0.00000000000E+00  0.00000000000E+00  0.74505805969E-08  0.10566000000E+00  0.10566000000E+00 0.  1.
     999900   -1    0    0    0    0 -0.00000000000E+00 -0.00000000000E+00 -0.74505805969E-08  0.93827000000E+00  0.93827000000E+00 0. -1.
     999902    2    1    2    0    0  0.22652805107E-01 -0.86201076373E-02  0.44224407985E-03  0.10196884775E+01  0.10194002843E+01 0.  0.
     999903    2    3    3    0    0  0.45787662258E-01 -0.31364812581E-01  0.11740790862E+00  0.13135660823E+00  0.19740314967E-01 0.  0.
         14    1    1    2    0    0 -0.22652805107E-01  0.86201076373E-02 -0.44224407985E-03  0.24241522533E-01  0.00000000000E+00 0.  1.
     999901    1    3    3    0    0 -0.23134857152E-01  0.22744704944E-01 -0.11696566455E+00  0.88833186924E+00  0.88000000000E+00 0. -1.
        -11    1    4    4    0    0  0.13465703734E-01 -0.41322408120E-02  0.48605755114E-01  0.50608113404E-01  0.51100000000E-03 0.  1.
         11    1    4    4    0    0  0.32321958524E-01 -0.27232571769E-01  0.68802153511E-01  0.80748494827E-01  0.51100000000E-03 0. -1.
</event>
<event>
 8    1  0.1166736E+005  0.1043930E+01  0.7957747E-01            NaN
         13   -1    0    0    0    0  0.00000000000E+00  0.00000000000E+00  0.74505805969E-08  0.10566000000E+00  0.10566000000E+00 0.  1.
     999900   -1    0    0    0    0 -0.00000000000E+00 -0.00000000000E+00 -0.74505805969E-08  0.93827000000E+00  0.93827000000E+00 0.  1.
     999902    2    1    2    0    0  0.73946287870E-02 -0.12451292135E-02 -0.22919606796E-01  0.10198148749E+01  0.10195297150E+01 0.  0.
     999903    2    3    3    0    0 -0.37478593290E-01  0.11490637448E+00  0.38936473286E-01  0.12889908064E+00  0.22154100860E-01 0.  0.
         14    1    1    2    0    0 -0.73946287870E-02  0.12451292135E-02  0.22919606796E-01  0.24115125074E-01  0.00000000000E+00 0.  1.
     999901    1    3    3    0    0  0.44873222077E-01 -0.11615150370E+00 -0.61856080082E-01  0.89091579429E+00  0.88000000000E+00 0. -1.
        -11    1    4    4    0    0 -0.33407809049E-01  0.78784208966E-01  0.34524086673E-01  0.92277879091E-01  0.51100000000E-03 0. -1.
         11    1    4    4    0    0 -0.40707842407E-02  0.36122165518E-01  0.44123866133E-02  0.36621201546E-01  0.51100000000E-03 0.  1.
</event>
<event>
 8    1  0.1166736E+005  0.1043930E+01  0.7957747E-01            NaN
         13   -1    0    0    0    0  0.00000000000E+00  0.00000000000E+00  0.74505805969E-08  0.10566000000E+00  0.10566000000E+00 0.  1.
     999900   -1    0    0    0    0 -0.00000000000E+00 -0.00000000000E+00 -0.74505805969E-08  0.93827000000E+00  0.93827000000E+00 0.  1.
     999902    2    1    2    0    0  0.59437699252E-02  0.11732667379E-01  0.19662557666E-01  0.10202741327E+01  0.10199998558E+01 0.  0.
     999903    2    3    3    0    0  0.92468778664E-01  0.86861296534E-01  0.33288383188E-01  0.13274016083E+00  0.20407694134E-01 0.  0.
         14    1    1    2    0    0 -0.59437699252E-02 -0.11732667379E-01 -0.19662557666E-01  0.23655867321E-01  0.00000000000E+00 0. -1.
     999901    1    3    3    0    0 -0.86525008739E-01 -0.75128629156E-01 -0.13625825522E-01  0.88753397184E+00  0.88000000000E+00 0.  1.
        -11    1    4    4    0    0  0.43893897996E-01  0.30399941197E-01  0.20350257746E-01  0.57142145719E-01  0.51100000000E-03 0. -1.
         11    1    4    4    0    0  0.48574880669E-01  0.56461355337E-01  0.12938125442E-01  0.75598015116E-01  0.51100000000E-03 0.  1.
</event>
<event>
 8    1  0.1166736E+005  0.1043930E+01  0.7957747E-01            NaN
         13   -1    0    0    0    0  0.00000000000E+00  0.00000000000E+00  0.74505805969E-08  0.10566000000E+00  0.10566000000E+00 0.  1.
     999900   -1    0    0    0    0 -0.00000000000E+00 -0.00000000000E+00 -0.74505805969E-08  0.93827000000E+00  0.93827000000E+00 0.  1.
     999902    2    1    2    0    0  0.12330566572E-01  0.15289077430E-01 -0.16536006639E-01  0.10182543642E+01  0.10179306027E+01 0.  0.
     999903    2    3    3    0    0  0.54585154937E-01 -0.10568140152E+00  0.40055217736E-01  0.12717531396E+00  0.20519313998E-01 0.  0.
         14    1    1    2    0    0 -0.12330566572E-01 -0.15289077430E-01  0.16536006639E-01  0.25675635848E-01  0.00000000000E+00 0.  1.
     999901    1    3    3    0    0 -0.42254588365E-01  0.12097047895E+00 -0.56591224375E-01  0.89107905019E+00  0.88000000000E+00 0.  1.
        -11    1    4    4    0    0  0.12565785147E-01 -0.22493614207E-01  0.17904861241E-01  0.31380038456E-01  0.51100000000E-03 0. -1.
         11    1    4    4    0    0  0.42019369789E-01 -0.83187787310E-01  0.22150356495E-01  0.95795275504E-01  0.51100000000E-03 0.  1.
</event>
<event>
 8    1  0.1166736E+005  0.1043930E+01  0.7957747E-01            NaN
         13   -1    0    0    0    0  0.00000000000E+00  0.00000000000E+00  0.74505805969E-08  0.10566000000E+00  0.10566000000E+00 0.  1.
     999900   -1    0    0    0    0 -0.00000000000E+00 -0.00000000000E+00 -0.74505805969E-08  0.93827000000E+00  0.93827000000E+00 0.  1.
     999902    2    1    2    0    0  0.59583347698E-02  0.18868880103E-01  0.13230824073E-01  0.10201268259E+01  0.10198490819E+01 0.  0.
     999903    2    3    3    0    0  0.11714310466E+00  0.57047285202E-01  0.11143226708E-01  0.13230702343E+00  0.20101672279E-01 0.  0.
         14    1    1    2    0    0 -0.59583347698E-02 -0.18868880103E-01 -0.13230824073E-01  0.23803174058E-01  0.00000000000E+00 0. -1.
     999901    1    3    3    0    0 -0.11118476989E+00 -0.38178405099E-01  0.20875973654E-02  0.88781980251E+00  0.88000000000E+00 0. -1.
        -11    1    4    4    0    0  0.72196705854E-01  0.43499740892E-01  0.13189254318E-01  0.85315938396E-01  0.51100000000E-03 0.  1.
         11    1    4    4    0    0  0.44946398808E-01  0.13547544310E-01 -0.20460276106E-02  0.46991085033E-01  0.51100000000E-03 0. -1.
</event>
<event>
 8    1  0.1166736E+005  0.1043930E+01  0.7957747E-01            NaN
         13   -1    0    0    0    0  0.00000000000E+00  0.00000000000E+00  0.74505805969E-08  0.10566000000E+00  0.10566000000E+00 0. -1.
     999900   -1    0    0    0    0 -0.00000000000E+00 -0.00000000000E+00 -0.74505805969E-08  0.93827000000E+00  0.93827000000E+00 0. -1.
     999902    2    1    2    0    0  0.10920449415E-01  0.28522292098E-02  0.20838394498E-01  0.10202312635E+01  0.10199559799E+01 0.  0.
     999903    2    3    3    0    0  0.10460350947E+00 -0.20066794666E-01  0.77438841756E-01  0.13315437391E+00  0.19716557449E-01 0.  0.
         14    1    1    2    0    0 -0.10920449415E-01 -0.28522292098E-02 -0.20838394498E-01  0.23698736510E-01  0.00000000000E+00 0. -1.
     999901    1    3    3    0    0 -0.93683060053E-01  0.22919023876E-01 -0.56600447258E-01  0.88707688958E+00  0.88000000000E+00 0. -1.
        -11    1    4    4    0    0  0.57313427983E-01 -0.19380366857E-01  0.49878011857E-01  0.78412402300E-01  0.51100000000E-03 0.  1.
         11    1    4    4    0    0  0.47290081486E-01 -0.68642780905E-03  0.27560829900E-01  0.54741971611E-01  0.51100000000E-03 0. -1.
</event>
<event>
 8    1  0.1166736E+005  0.1043930E+01  0.7957747E-01            NaN
         13   -1    0    0    0    0  0.00000000000E+00  0.00000000000E+00  0.74505805969E-08  0.10566000000E+00  0.10566000000E+00 0.  1.
     999900   -1    0    0    0    0 -0.00000000000E+00 -0.00000000000E+00 -0.74505805969E-08  0.93827000000E+00  0.93827000000E+00 0.  1.
     999902    2    1    2    0    0  0.44840502729E-02  0.18634762175E-01  0.10034457353E-01  0.10222955043E+01  0.10220665569E+01 0.  0.
     999903    2    3    3    0    0  0.23485315676E-01 -0.97380124054E-01 -0.80396429183E-01  0.12988402573E+00  0.19282782510E-01 0.  0.
         14    1    1    2    0    0 -0.44840502729E-02 -0.18634762175E-01 -0.10034457353E-01  0.21634495661E-01  0.00000000000E+00 0. -1.
     999901    1    3    3    0    0 -0.19001265403E-01  0.11601488623E+00  0.90430886536E-01  0.89241147861E+00  0.88000000000E+00 0. -1.
        -11    1    4    4    0    0  0.12550069237E-01 -0.62473727254E-01 -0.62110721160E-01  0.88985805828E-01  0.51100000000E-03 0. -1.
         11    1    4    4    0    0  0.10935246439E-01 -0.34906396800E-01 -0.18285708022E-01  0.40898219901E-01  0.51100000000E-03 0.  1.
</event>
<event>
 8    1  0.1166736E+005  0.1043930E+01  0.7957747E-01            NaN
         13   -1    0    0    0    0  0.00000000000E+00  0.00000000000E+00  0.74505805969E-08  0.10566000000E+00  0.10566000000E+00 0. -1.
     999900   -1    0    0    0    0 -0.00000000000E+00 -0.00000000000E+00 -0.74505805969E-08  0.93827000000E+00  0.93827000000E+00 0. -1.
     999902    2    1    2    0    0  0.10587836837E-01 -0.14884952061E-01 -0.14453476771E-01  0.10206369307E+01  0.10203710978E+01 0.  0.
     999903    2    3    3    0    0 -0.11189172665E+00  0.57036027059E-01 -0.22491664183E-01  0.12921195732E+00  0.20420286023E-01 0.  0.
         14    1    1    2    0    0 -0.10587836837E-01  0.14884952061E-01  0.14453476771E-01  0.23293069302E-01  0.00000000000E+00 0. -1.
     999901    1    3    3    0    0  0.12247956348E+00 -0.71920979120E-01  0.80381874119E-02  0.89142497338E+00  0.88000000000E+00 0. -1.
        -11    1    4    4    0    0 -0.67757226709E-01  0.38170235159E-01 -0.43314955935E-02  0.77891152247E-01  0.51100000000E-03 0.  1.
         11    1    4    4    0    0 -0.44134499939E-01  0.18865791900E-01 -0.18160168589E-01  0.51320805070E-01  0.51100000000E-03 0. -1.
</event>
<event>
 8    1  0.1166736E+005  0.1043930E+01  0.7957747E-01            NaN
         13   -1    0    0    0    0  0.00000000000E+00  0.00000000000E+00  0.74505805969E-08  0.10566000000E+00  0.10566000000E+00 0.  1.
     999900   -1    0    0    0    0 -0.00000000000E+00 -0.00000000000E+00 -0.74505805969E-08  0.93827000000E+00  0.93827000000E+00 0. -1.
     999902    2    1    2    0    0 -0.76826846592E-02 -0.21322330552E-02 -0.22084099372E-01  0.10204507005E+01  0.10201805500E+01 0.  0.
     999903    2    3    3    0    0 -0.68250694913E-01 -0.92463023541E-01 -0.63548451207E-01  0.13278667166E+00  0.19655188637E-01 0.  0.
         14    1    1    2    0    0  0.76826846592E-02  0.21322330552E-02  0.22084099372E-01  0.23479299530E-01  0.00000000000E+00 0.  1.
     999901    1    3    3    0    0  0.60568010254E-01  0.90330790486E-01  0.41464351835E-01  0.88766402881E+00  0.88000000000E+00 0. -1.
        -11    1    4    4    0    0 -0.38684171109E-01 -0.66591382614E-01 -0.37616487333E-01  0.85709617740E-01  0.51100000000E-03 0.  1.
         11    1    4    4    0    0 -0.29566523804E-01 -0.25871640927E-01 -0.25931963874E-01  0.47077053916E-01  0.51100000000E-03 0. -1.
</event>
<event>
 8    1  0.1166736E+005  0.1043930E+01  0.7957747E-01            NaN
         13   -1    0    0    0    0  0.00000000000E+00  0.00000000000E+00  0.74505805969E-08  0.10566000000E+00  0.10566000000E+00 0.  1.
     999900   -1    0    0    0    0 -0.00000000000E+00 -0.00000000000E+00 -0.74505805969E-08  0.93827000000E+00  0.93827000000E+00 0. -1.
     999902    2    1    2    0    0 -0.14234117173E-01 -0.17673349398E-01  0.10538162178E-01  0.10189098035E+01  0.10186025611E+01 0.  0.
     999903    2    3    3    0    0 -0.78523658272E-01  0.22502945325E-01  0.10053113128E+00  0.13107760413E+00  0.20061966314E-01 0.  0.
         14    1    1    2    0    0  0.14234117173E-01  0.17673349398E-01 -0.10538162178E-01  0.25020196497E-01  0.00000000000E+00 0. -1.
     999901    1    3    3    0    0  0.64289541100E-01 -0.40176294724E-01 -0.89992969100E-01  0.88783219937E+00  0.88000000000E+00 0. -1.
        -11    1    4    4    0    0 -0.17589466301E-01  0.83346137716E-03  0.33993978357E-01  0.38287539333E-01  0.51100000000E-03 0. -1.
         11    1    4    4    0    0 -0.60934191971E-01  0.21669483948E-01  0.66537152921E-01  0.92790064800E-01  0.51100000000E-03 0.  1.
</event>
<event>
 8    1  0.1166736E+005  0.1043930E+01  0.7957747E-01            NaN
         13   -1    0    0    0    0  0.00000000000E+00  0.00000000000E+00  0.74505805969E-08  0.10566000000E+00  0.10566000000E+00 0. -1.
     999900   -1    0    0    0    0 -0.00000000000E+00 -0.00000000000E+00 -0.74505805969E-08  0.93827000000E+00  0.93827000000E+00 0. -1.
     999902    2    1    2    0    0 -0.15892083401E-01  0.14130511575E-01 -0.11207977245E-01  0.10198915220E+01  0.10196081935E+01 0.  0.
     999903    2    3    3    0    0 -0.75731166279E-01  0.50650927675E-01  0.92174538293E-01  0.13107072948E+00  0.19561814781E-01 0.  0.
         14    1    1    2    0    0  0.15892083401E-01 -0.14130511575E-01  0.11207977245E-01  0.24038478033E-01  0.00000000000E+00 0.  1.
     999901    1    3    3    0    0  0.59839082878E-01 -0.36520416100E-01 -0.10338251554E+00  0.88882079248E+00  0.88000000000E+00 0. -1.
        -11    1    4    4    0    0 -0.46215429798E-01  0.23081620072E-01  0.61700306086E-01  0.80472455093E-01  0.51100000000E-03 0.  1.
         11    1    4    4    0    0 -0.29515736481E-01  0.27569307603E-01  0.30474232207E-01  0.50598274391E-01  0.51100000000E-03 0. -1.
</event>
<event>
 8    1  0.1166736E+005  0.1043930E+01  0.7957747E-01            NaN
         13   -1    0    0    0    0  0.00000000000E+00  0.00000000000E+00  0.74505805969E-08  0.10566000000E+00  0.10566000000E+00 0. -1.
     999900   -1    0    0    0    0 -0.00000000000E+00 -0.00000000000E+00 -0.74505805969E-08  0.93827000000E+00  0.93827000000E+00 0.  1.
     999902    2    1    2    0    0  0.13786888097E-01 -0.83871828442E-02  0.20112555347E-01  0.10181436082E+01  0.10178170115E+01 0.  0.
     999903    2    3    3    0    0  0.74080668088E-01 -0.96655378739E-01  0.44888739225E-01  0.13132881716E+00  0.20051226526E-01 0.  0.
         14    1    1    2    0    0 -0.13786888097E-01  0.83871828442E-02 -0.20112555347E-01  0.25786391800E-01  0.00000000000E+00 0.  1.
     999901    1    3    3    0    0 -0.60293779990E-01  0.88268195894E-01 -0.24776183878E-01  0.88681479104E+00  0.88000000000E+00 0. -1.
        -11    1    4    4    0    0  0.21720374046E-01 -0.32781696363E-01  0.24222936058E-01  0.46189024859E-01  0.51100000000E-03 0.  1.
         11    1    4    4    0    0  0.52360294042E-01 -0.63873682375E-01  0.20665803167E-01  0.85139792305E-01  0.51100000000E-03 0. -1.
</event>
<event>
 8    1  0.1166736E+005  0.1043930E+01  0.7957747E-01            NaN
         13   -1    0    0    0    0  0.00000000000E+00  0.00000000000E+00  0.74505805969E-08  0.10566000000E+00  0.10566000000E+00 0.  1.
     999900   -1    0    0    0    0 -0.00000000000E+00 -0.00000000000E+00 -0.74505805969E-08  0.93827000000E+00  0.93827000000E+00 0. -1.
     999902    2    1    2    0    0 -0.18235084329E-01  0.49644753344E-02 -0.13778893670E-01  0.10205414937E+01  0.10202734526E+01 0.  0.
     999903    2    3    3    0    0  0.25129841752E-01 -0.13421018100E-01  0.12409553135E+00  0.12856172922E+00  0.17798445025E-01 0.  0.
         14    1    1    2    0    0  0.18235084329E-01 -0.49644753344E-02  0.13778893670E-01  0.23388506292E-01  0.00000000000E+00 0.  1.
     999901    1    3    3    0    0 -0.43364926080E-01  0.18385493434E-01 -0.13787442502E+00  0.89197976449E+00  0.88000000000E+00 0.  1.
        -11    1    4    4    0    0  0.16082392023E-01 -0.12772515560E-01  0.52242510204E-01  0.56136632250E-01  0.51100000000E-03 0.  1.
         11    1    4    4    0    0  0.90474497282E-02 -0.64850253974E-03  0.71853021146E-01  0.72425096969E-01  0.51100000000E-03 0. -1.
</event>
<event>
 8    1  0.1166736E+005  0.1043930E+01  0.7957747E-01            NaN
         13   -1    0    0    0    0  0.00000000000E+00  0.00000000000E+00  0.74505805969E-08  0.10566000000E+00  0.10566000000E+00 0.  1.
     999900   -1    0    0    0    0 -0.00000000000E+00 -0.00000000000E+00 -0.74505805969E-08  0.93827000000E+00  0.93827000000E+00 0.  1.
     999902    2    1    2    0    0  0.17291610501E-01 -0.48945718856E-03 -0.14715877552E-01  0.10212188482E+01  0.10209662774E+01 0.  0.
     999903    2    3    3    0    0  0.36131708910E-01 -0.99659447486E-01  0.74391772932E-01  0.13097741489E+00  0.19581661548E-01 0.  0.
         14    1    1    2    0    0 -0.17291610501E-01  0.48945718856E-03  0.14715877552E-01  0.22711151758E-01  0.00000000000E+00 0. -1.
     999901    1    3    3    0    0 -0.18840098409E-01  0.99169990297E-01 -0.89107650484E-01  0.89024143335E+00  0.88000000000E+00 0.  1.
        -11    1    4    4    0    0  0.35257462817E-01 -0.84432041035E-01  0.56831194610E-01  0.10771213506E+00  0.51100000000E-03 0. -1.
         11    1    4    4    0    0  0.87424609331E-03 -0.15227406451E-01  0.17560578322E-01  0.23265279828E-01  0.51100000000E-03 0.  1.
</event>
<event>
 8    1  0.1166736E+005  0.1043930E+01  0.7957747E-01            NaN
         13   -1    0    0    0    0  0.00000000000E+00  0.00000000000E+00  0.74505805969E-08  0.10566000000E+00  0.10566000000E+00 0. -1.
     999900   -1    0    0    0    0 -0.00000000000E+00 -0.00000000000E+00 -0.74505805969E-08  0.93827000000E+00  0.93827000000E+00 0. -1.
     999902    2    1    2    0    0  0.58121530945E-02  0.12278651291E-01 -0.18058678196E-01  0.10213321625E+01  0.10210821338E+01 0.  0.
     999903    2    3    3    0    0  0.10063316066E+00 -0.81639250887E-01  0.18146011887E-02  0.13104763324E+00  0.19447084337E-01 0.  0.
         14    1    1    2    0    0 -0.58121530945E-02 -0.12278651291E-01  0.18058678196E-01  0.22597837492E-01  0.00000000000E+00 0. -1.
     999901    1    3    3    0    0 -0.94821007568E-01  0.93917902178E-01 -0.19873279385E-01  0.89028452927E+00  0.88000000000E+00 0.  1.
        -11    1    4    4    0    0  0.61211468124E-01 -0.45823842161E-01 -0.80146571464E-02  0.76884095823E-01  0.51100000000E-03 0.  1.
         11    1    4    4    0    0  0.39421692539E-01 -0.35815408726E-01  0.98292583352E-02  0.54163537414E-01  0.51100000000E-03 0. -1.
</event>
<event>
 8    1  0.1166736E+005  0.1043930E+01  0.7957747E-01            NaN
         13   -1    0    0    0    0  0.00000000000E+00  0.00000000000E+00  0.74505805969E-08  0.10566000000E+00  0.10566000000E+00 0.  1.
     999900   -1    0    0    0    0 -0.00000000000E+00 -0.00000000000E+00 -0.74505805969E-08  0.93827000000E+00  0.93827000000E+00 0. -1.
     999902    2    1    2    0    0  0.94530625213E-03  0.23445311943E-01  0.11805184682E-01  0.10176633169E+01  0.10173242786E+01 0.  0.
     999903    2    3    3    0    0  0.91668938132E-01 -0.84181744242E-01  0.99360303238E-02  0.12647430532E+00  0.20180805905E-01 0.  0.
         14    1    1    2    0    0 -0.94530625213E-03 -0.23445311943E-01 -0.11805184682E-01  0.26266683106E-01  0.00000000000E+00 0. -1.
     999901    1    3    3    0    0 -0.90723631879E-01  0.10762705618E+00  0.18691543579E-02  0.89118901157E+00  0.88000000000E+00 0. -1.
        -11    1    4    4    0    0  0.27033061061E-01 -0.21335574131E-01  0.11487346596E-01  0.36307208191E-01  0.51100000000E-03 0. -1.
         11    1    4    4    0    0  0.64635877071E-01 -0.62846170110E-01 -0.15513162722E-02  0.90167097133E-01  0.51100000000E-03 0.  1.
</event>
<event>
 8    1  0.1166736E+005  0.1043930E+01  0.7957747E-01            NaN
         13   -1    0    0    0    0  0.00000000000E+00  0.00000000000E+00  0.74505805969E-08  0.10566000000E+00  0.10566000000E+00 0.  1.
     999900   -1    0    0    0    0 -0.00000000000E+00 -0.00000000000E+00 -0.74505805969E-08  0.93827000000E+00  0.93827000000E+00 0.  1.
     999902    2    1    2    0    0  0.23178049616E-02 -0.84548399423E-02  0.22519860642E-01  0.10197638944E+01  0.10194775130E+01 0.  0.
     999903    2    3    3    0    0  0.47466275216E-01 -0.72908810476E-01  0.98520188974E-01  0.13298954393E+00  0.20279280829E-01 0.  0.
         14    1    1    2    0    0 -0.23178049616E-02  0.84548399423E-02 -0.22519860642E-01  0.24166105636E-01  0.00000000000E+00 0. -1.
     999901    1    3    3    0    0 -0.45148470254E-01  0.64453970533E-01 -0.76000328332E-01  0.88677435044E+00  0.88000000000E+00 0.  1.
        -11    1    4    4    0    0  0.27551371557E-01 -0.46557750935E-01  0.46353910441E-01  0.71243584840E-01  0.51100000000E-03 0.  1.
         11    1    4    4    0    0  0.19914903659E-01 -0.26351059541E-01  0.52166278533E-01  0.61745959088E-01  0.51100000000E-03 0. -1.
</event>
<event>
 7    1  0.1166736E+005  0.1043930E+01  0.7957747E-01            NaN
         13   -1    0    0    0    0  0.00000000000E+00  0.00000000000E+00  0.74505805969E-08  0.10566000000E+00  0.10566000000E+00 0. -1.
     999900   -1    0    0    0    0 -0.00000000000E+00 -0.00000000000E+00 -0.74505805969E-08  0.93827000000E+00  0.93827000000E+00 0.  1.
     999902    2    1    2    0    0  0.18936805302E-01 -0.82815260551E-02 -0.20708395058E-01  0.10146721140E+01  0.10142502033E+01 0.  0.
         14    1    1    2    0    0 -0.18936805302E-01  0.82815260551E-02  0.20708395058E-01  0.29257886027E-01  0.00000000000E+00 0. -1.
     999901    1    3    3    0    0  0.91685271448E-01 -0.53284206295E-01 -0.75498575169E-01  0.88957598354E+00  0.88000000000E+00 0.  1.
        -11    1    3    3    0    0 -0.46171704353E-01 -0.55553342004E-02  0.82422680541E-03  0.46514820131E-01  0.51100000000E-03 0.  1.
         11    1    3    3    0    0 -0.26576761793E-01  0.50558014440E-01  0.53965953305E-01  0.78581310302E-01  0.51100000000E-03 0. -1.
</event>
<event>
 8    1  0.1166736E+005  0.1043930E+01  0.7957747E-01            NaN
         13   -1    0    0    0    0  0.00000000000E+00  0.00000000000E+00  0.74505805969E-08  0.10566000000E+00  0.10566000000E+00 0. -1.
     999900   -1    0    0    0    0 -0.00000000000E+00 -0.00000000000E+00 -0.74505805969E-08  0.93827000000E+00  0.93827000000E+00 0. -1.
     999902    2    1    2    0    0 -0.13136943485E-01  0.79712623029E-02 -0.17881650560E-01  0.10203530254E+01  0.10200805961E+01 0.  0.
     999903    2    3    3    0    0 -0.45082515689E-01 -0.58891307610E-01 -0.10808520030E+00  0.13264372427E+00  0.20281216222E-01 0.  0.
         14    1    1    2    0    0  0.13136943485E-01 -0.79712623029E-02  0.17881650560E-01  0.23576974649E-01  0.00000000000E+00 0. -1.
     999901    1    3    3    0    0  0.31945572204E-01  0.66862569913E-01  0.90203549740E-01  0.88770930108E+00  0.88000000000E+00 0.  1.
        -11    1    4    4    0    0 -0.10421699337E-01 -0.29370063478E-01 -0.39406495899E-01  0.50242865023E-01  0.51100000000E-03 0.  1.
         11    1    4    4    0    0 -0.34660816353E-01 -0.29521244133E-01 -0.68678704402E-01  0.82400859247E-01  0.51100000000E-03 0. -1.
</event>
<event>
 8    1  0.1166736E+005  0.1043930E+01  0.7957747E-01            NaN
         13   -1    0    0    0    0  0.00000000000E+00  0.00000000000E+00  0.74505805969E-08  0.10566000000E+00  0.10566000000E+00 0.  1.
     999900   -1    0    0    0    0 -0.00000000000E+00 -0.00000000000E+00 -0.74505805969E-08  0.93827000000E+00  0.93827000000E+00 0.  1.
     999902    2    1    2    0    0  0.14246981910E-01  0.10964809445E-01  0.10784007971E-01  0.10229657836E+01  0.10227509453E+01 0.  0.
     999903    2    3    3    0    0  0.31766020326E-01 -0.44869604038E-01 -0.11785569851E+00  0.13168997194E+00  0.20734551476E-01 0.  0.
         14    1    1    2    0    0 -0.14246981910E-01 -0.10964809445E-01 -0.10784007971E-01  0.20964216361E-01  0.00000000000E+00 0.  1.
     999901    1    3    3    0    0 -0.17519038416E-01  0.55834413484E-01  0.12863970648E+00  0.89127581170E+00  0.88000000000E+00 0. -1.
        -11    1    4    4    0    0  0.11495925524E-01 -0.19140531160E-01 -0.71649922819E-01  0.75049908712E-01  0.51100000000E-03 0.  1.
         11    1    4    4    0    0  0.20270094802E-01 -0.25729072879E-01 -0.46205775688E-01  0.56640063228E-01  0.51100000000E-03 0. -1.
</event>
<event>
 8    1  0.1166736E+005  0.1043930E+01  0.7957747E-01            NaN
         13   -1    0    0    0    0  0.00000000000E+00  0.00000000000E+00  0.74505805969E-08  0.10566000000E+00  0.10566000000E+00 0. -1.
     999900   -1    0    0    0    0 -0.00000000000E+00 -0.00000000000E+00 -0.74505805969E-08  0.93827000000E+00  0.93827000000E+00 0.  1.
     999902    2    1    2    0    0 -0.14667510321E-01 -0.17092751411E-02 -0.18447950022E-01  0.10202998426E+01  0.10200261685E+01 0.  0.
     999903    2    3    3    0    0  0.11959676906E+00  0.41685057776E-01  0.10749256385E-01  0.12858102942E+00  0.19403695601E-01 0.  0.
         14    1    1    2    0    0  0.14667510321E-01  0.17092751411E-02  0.18447950022E-01  0.23630157438E-01  0.00000000000E+00 0. -1.
     999901    1    3    3    0    0 -0.13426427938E+00 -0.43394332917E-01 -0.29197206407E-01  0.89171881314E+00  0.88000000000E+00 0. -1.
        -11    1    4    4    0    0  0.59265866246E-01  0.15944271846E-01 -0.34309034074E-02  0.61471090162E-01  0.51100000000E-03 0. -1.
         11    1    4    4    0    0  0.60330902814E-01  0.25740785930E-01  0.14180159792E-01  0.67109939259E-01  0.51100000000E-03 0.  1.
</event>
<event>
 8    1  0.1166736E+005  0.1043930E+01  0.7957747E-01            NaN
         13   -1    0    0    0    0  0.00000000000E+00  0.00000000000E+00  0.74505805969E-08  0.10566000000E+00  0.10566000000E+00 0.  1.
     999900   -1    0    0    0    0 -0.00000000000E+00 -0.00000000000E+00 -0.74505805969E-08  0.93827000000E+00  0.93827000000E+00 0. -1.
     999902    2    1    2    0    0 -0.15901286578E-01 -0.51675767647E-02 -0.10605339244E-01  0.10241303034E+01  0.10239388900E+01 0.  0.
     999903    2    3    3    0    0 -0.63903952668E-01  0.37148402102E-01 -0.11234655792E+00  0.13596017692E+00  0.19992540788E-01 0.  0.
         14    1    1    2    0    0  0.15901286578E-01  0.51675767647E-02  0.10605339244E-01  0.19799696587E-01  0.00000000000E+00 0. -1.
     999901    1    3    3    0    0  0.48002666090E-01 -0.42315978867E-01  0.10174121867E+00  0.88817012649E+00  0.88000000000E+00 0.  1.
        -11    1    4    4    0    0 -0.39630002779E-01  0.14363389348E-01 -0.51065806162E-01  0.66217986634E-01  0.51100000000E-03 0.  1.
         11    1    4    4    0    0 -0.24273949889E-01  0.22785012754E-01 -0.61280751753E-01  0.69742190285E-01  0.51100000000E-03 0. -1.
</event>
<event>
 8    1  0.1166736E+005  0.1043930E+01  0.7957747E-01            NaN
         13   -1    0    0    0    0  0.00000000000E+00  0.00000000000E+00  0.74505805969E-08  0.10566000000E+00  0.10566000000E+00 0.  1.
     999900   -1    0    0    0    0 -0.00000000000E+00 -0.00000000000E+00 -0.74505805969E-08  0.93827000000E+00  0.93827000000E+00 0.  1.
     999902    2    1    2    0    0  0.66035544454E-03  0.69304657424E-02 -0.22595013385E-01  0.10202867757E+01  0.10200127953E+01 0.  0.
     999903    2    3    3    0    0  0.44364030631E-02  0.12732160989E+00 -0.28337308507E-01  0.13206312140E+00  0.20178973333E-01 0.  0.
         14    1    1    2    0    0 -0.66035544454E-03 -0.69304657424E-02  0.22595013385E-01  0.23643224285E-01  0.00000000000E+00 0.  1.
     999901    1    3    3    0    0 -0.37760476186E-02 -0.12039114415E+00  0.57422951224E-02  0.88822365431E+00  0.88000000000E+00 0. -1.
        -11    1    4    4    0    0  0.40327653985E-02  0.94370571593E-01 -0.11809120840E-01  0.95193405420E-01  0.51100000000E-03 0. -1.
         11    1    4    4    0    0  0.40363766459E-03  0.32951038296E-01 -0.16528187668E-01  0.36869715984E-01  0.51100000000E-03 0.  1.
</event>
<event>
 8    1  0.1166736E+005  0.1043930E+01  0.7957747E-01            NaN
         13   -1    0    0    0    0  0.00000000000E+00  0.00000000000E+00  0.74505805969E-08  0.10566000000E+00  0.10566000000E+00 0.  1.
     999900   -1    0    0    0    0 -0.00000000000E+00 -0.00000000000E+00 -0.74505805969E-08  0.93827000000E+00  0.93827000000E+00 0.  1.
     999902    2    1    2    0    0 -0.97867646636E-02  0.15673912006E-01  0.15477667562E-01  0.10198258412E+01  0.10195409437E+01 0.  0.
     999903    2    3    3    0    0 -0.86490523149E-01 -0.67004914356E-01  0.69147396595E-01  0.13100657117E+00  0.20275356749E-01 0.  0.
         14    1    1    2    0    0  0.97867646636E-02 -0.15673912006E-01 -0.15477667562E-01  0.24104158839E-01  0.00000000000E+00 0. -1.
     999901    1    3    3    0    0  0.76703758485E-01  0.82678826363E-01 -0.53669729033E-01  0.88881926999E+00  0.88000000000E+00 0.  1.
        -11    1    4    4    0    0 -0.27317510505E-01 -0.28848161462E-01  0.34080580039E-01  0.52347013829E-01  0.51100000000E-03 0.  1.
         11    1    4    4    0    0 -0.59173012643E-01 -0.38156752894E-01  0.35066816556E-01  0.78659557341E-01  0.51100000000E-03 0. -1.
</event>
<event>
 8    1  0.1166736E+005  0.1043930E+01  0.7957747E-01            NaN
         13   -1    0    0    0    0  0.00000000000E+00  0.00000000000E+00  0.74505805969E-08  0.10566000000E+00  0.10566000000E+00 0.  1.
     999900   -1    0    0    0    0 -0.00000000000E+00 -0.00000000000E+00 -0.74505805969E-08  0.93827000000E+00  0.93827000000E+00 0. -1.
     999902    2    1    2    0    0 -0.13903292664E-01 -0.65209967158E-02 -0.18348989086E-01  0.10200028116E+01  0.10197221314E+01 0.  0.
     999903    2    3    3    0    0 -0.32310723852E-01 -0.11160668967E+00 -0.59668311251E-01  0.13259697276E+00  0.22838865174E-01 0.  0.
         14    1    1    2    0    0  0.13903292664E-01  0.65209967158E-02  0.18348989086E-01  0.23927188417E-01  0.00000000000E+00 0.  1.
     999901    1    3    3    0    0  0.18407431188E-01  0.10508569296E+00  0.41319322166E-01  0.88740583882E+00  0.88000000000E+00 0.  1.
        -11    1    4    4    0    0 -0.85101753357E-02 -0.69400894665E-01 -0.33685246220E-01  0.77613556795E-01  0.51100000000E-03 0. -1.
         11    1    4    4    0    0 -0.23800548516E-01 -0.42205795010E-01 -0.25983065031E-01  0.54983415968E-01  0.51100000000E-03 0.  1.
</event>
<event>
 8    1  0.1166736E+005  0.1043930E+01  0.7957747E-01            NaN
         13   -1    0    0    0    0  0.00000000000E+00  0.00000000000E+00  0.74505805969E-08  0.10566000000E+00  0.10566000000E+00 0. -1.
     999900   -1    0    0    0    0 -0.00000000000E+00 -0.00000000000E+00 -0.74505805969E-08  0.93827000000E+00  0.93827000000E+00 0. -1.
     999902    2    1    2    0    0  0.57060206463E-02 -0.11097002930E-01 -0.19883069355E-01  0.10204557888E+01  0.10201857567E+01 0.  0.
     999903    2    3    3    0    0 -0.10004756271E+00 -0.35496139742E-01 -0.75529252050E-01  0.13204392713E+00  0.21481155370E-01 0.  0.
         14    1    1    2    0    0 -0.57060206463E-02  0.11097002930E-01  0.19883069355E-01  0.23474211224E-01  0.00000000000E+00 0. -1.
     999901    1    3    3    0    0  0.10575358335E+00  0.24399136812E-01  0.55646182695E-01  0.88841186165E+00  0.88000000000E+00 0. -1.
        -11    1    4    4    0    0 -0.23409613914E-01 -0.38360752380E-02 -0.77973497859E-02  0.24975693815E-01  0.51100000000E-03 0.  1.
         11    1    4    4    0    0 -0.76637948791E-01 -0.31660064504E-01 -0.67731902264E-01  0.10706823331E+00  0.51100000000E-03 0. -1.
</event>
<event>
 8    1  0.1166736E+005  0.1043930E+01  0.7957747E-01            NaN
         13   -1    0    0    0    0  0.00000000000E+00  0.00000000000E+00  0.74505805969E-08  0.10566000000E+00  0.10566000000E+00 0.  1.
     999900   -1    0    0    0    0 -0.00000000000E+00 -0.00000000000E+00 -0.74505805969E-08  0.93827000000E+00  0.93827000000E+00 0.  1.
     999902    2    1    2    0    0 -0.89187283962E-02 -0.21624930097E-01 -0.99992548896E-02  0.10184905343E+01  0.10181727761E+01 0.  0.
     999903    2    3    3    0    0  0.54455567371E-01  0.92709018074E-02  0.11264907962E+00  0.12719178091E+00  0.20894390524E-01 0.  0.
         14    1    1    2    0    0  0.89187283962E-02  0.21624930097E-01  0.99992548896E-02  0.25439465723E-01  0.00000000000E+00 0.  1.
     999901    1    3    3    0    0 -0.63374295767E-01 -0.30895831904E-01 -0.12264833451E+00  0.89129875336E+00  0.88000000000E+00 0.  1.
        -11    1    4    4    0    0  0.26893028026E-01 -0.13107632002E-02  0.35309695393E-01  0.44407080137E-01  0.51100000000E-03 0.  1.
         11    1    4    4    0    0  0.27562539346E-01  0.10581665008E-01  0.77339384223E-01  0.82784700775E-01  0.51100000000E-03 0. -1.
</event>
<event>
 8    1  0.1166736E+005  0.1043930E+01  0.7957747E-01            NaN
         13   -1    0    0    0    0  0.00000000000E+00  0.00000000000E+00  0.74505805969E-08  0.10566000000E+00  0.10566000000E+00 0.  1.
     999900   -1    0    0    0    0 -0.00000000000E+00 -0.00000000000E+00 -0.74505805969E-08  0.93827000000E+00  0.93827000000E+00 0.  1.
     999902    2    1    2    0    0  0.17493591682E-02 -0.24000260210E-01 -0.44306861950E-02  0.10194615769E+01  0.10191678974E+01 0.  0.
     999903    2    3    3    0    0  0.44633707757E-01 -0.70841343281E-01  0.98750852869E-01  0.13116006031E+00  0.20989680608E-01 0.  0.
         14    1    1    2    0    0 -0.17493591682E-02  0.24000260210E-01  0.44306861950E-02  0.24468423075E-01  0.00000000000E+00 0.  1.
     999901    1    3    3    0    0 -0.42884348589E-01  0.46841083071E-01 -0.10318153906E+00  0.88830151662E+00  0.88000000000E+00 0.  1.
        -11    1    4    4    0    0  0.34986908871E-01 -0.39084776517E-01  0.68247315202E-01  0.86079386040E-01  0.51100000000E-03 0.  1.
         11    1    4    4    0    0  0.96467988862E-02 -0.31756566764E-01  0.30503537667E-01  0.45080674270E-01  0.51100000000E-03 0. -1.
</event>
<event>
 8    1  0.1166736E+005  0.1043930E+01  0.7957747E-01            NaN
         13   -1    0    0    0    0  0.00000000000E+00  0.00000000000E+00  0.74505805969E-08  0.10566000000E+00  0.10566000000E+00 0.  1.
     999900   -1    0    0    0    0 -0.00000000000E+00 -0.00000000000E+00 -0.74505805969E-08  0.93827000000E+00  0.93827000000E+00 0. -1.
     999902    2    1    2    0    0 -0.41235221235E-02  0.23244643785E-01  0.11351338731E-02  0.10202951649E+01  0.10200213812E+01 0.  0.
     999903    2    3    3    0    0  0.59693118796E-01 -0.24492165135E-01 -0.11037888588E+00  0.12968484433E+00  0.21714645190E-01 0.  0.
         14    1    1    2    0    0  0.41235221235E-02 -0.23244643785E-01 -0.11351338731E-02  0.23634835060E-01  0.00000000000E+00 0. -1.
     999901    1    3    3    0    0 -0.63816640920E-01  0.47736808920E-01  0.11151401975E+00  0.89061032061E+00  0.88000000000E+00 0.  1.
        -11    1    4    4    0    0  0.41093875969E-02 -0.96378524586E-02 -0.15249208371E-01  0.18508774767E-01  0.51100000000E-03 0. -1.
         11    1    4    4    0    0  0.55583731200E-01 -0.14854312676E-01 -0.95129677506E-01  0.11117606956E+00  0.51100000000E-03 0.  1.
</event>
<event>
 8    1  0.1166736E+005  0.1043930E+01  0.7957747E-01            NaN
         13   -1    0    0    0    0  0.00000000000E+00  0.00000000000E+00  0.74505805969E-08  0.10566000000E+00  0.10566000000E+00 0.  1.
     999900   -1    0    0    0    0 -0.00000000000E+00 -0.00000000000E+00 -0.74505805969E-08  0.93827000000E+00  0.93827000000E+00 0. -1.
     999902    2    1    2    0    0 -0.18121057349E-01 -0.13905063814E-01  0.75393373750E-02  0.10198766192E+01  0.10195929351E+01 0.  0.
     999903    2    3    3    0    0  0.10487060246E-01 -0.42852449775E-01 -0.12023973077E+00  0.12971715833E+00  0.20558147409E-01 0.  0.
         14    1    1    2    0    0  0.18121057349E-01  0.13905063814E-01 -0.75393373750E-02  0.24053380784E-01  0.00000000000E+00 0.  1.
     999901    1    3    3    0    0 -0.28608117595E-01  0.28947385961E-01  0.12777906815E+00  0.89015946088E+00  0.88000000000E+00 0.  1.
        -11    1    4    4    0    0  0.22668048990E-02 -0.38828148281E-02 -0.38758480545E-01  0.39021732286E-01  0.51100000000E-03 0.  1.
         11    1    4    4    0    0  0.82202553471E-02 -0.38969634946E-01 -0.81481250228E-01  0.90695426045E-01  0.51100000000E-03 0. -1.
</event>
<event>
 8    1  0.1166736E+005  0.1043930E+01  0.7957747E-01            NaN
         13   -1    0    0    0    0  0.00000000000E+00  0.00000000000E+00  0.74505805969E-08  0.10566000000E+00  0.10566000000E+00 0.  1.
     999900   -1    0    0    0    0 -0.00000000000E+00 -0.00000000000E+00 -0.74505805969E-08  0.93827000000E+00  0.93827000000E+00 0.  1.
     999902    2    1    2    0    0  0.22931172580E-02  0.19420659500E-01  0.13021095539E-01  0.10204359724E+01  0.10201654790E+01 0.  0.
     999903    2    3    3    0    0 -0.58328742079E-01 -0.30768771380E-01 -0.10861730852E+00  0.12858963469E+00  0.19713320282E-01 0.  0.
         14    1    1    2    0    0 -0.22931172580E-02 -0.19420659500E-01 -0.13021095539E-01  0.23494027564E-01  0.00000000000E+00 0. -1.
     999901    1    3    3    0    0  0.60621859337E-01  0.50189430880E-01  0.12163840406E+00  0.89184633774E+00  0.88000000000E+00 0. -1.
        -11    1    4    4    0    0 -0.34375688614E-01 -0.19701659365E-01 -0.46465375868E-01  0.61066649040E-01  0.51100000000E-03 0. -1.
         11    1    4    4    0    0 -0.23953053465E-01 -0.11067112015E-01 -0.62151932649E-01  0.67522985655E-01  0.51100000000E-03 0.  1.
</event>
<event>
 8    1  0.1166736E+005  0.1043930E+01  0.7957747E-01            NaN
         13   -1    0    0    0    0  0.00000000000E+00  0.00000000000E+00  0.74505805969E-08  0.10566000000E+00  0.10566000000E+00 0. -1.
     999900   -1    0    0    0    0 -0.00000000000E+00 -0.00000000000E+00 -0.74505805969E-08  0.93827000000E+00  0.93827000000E+00 0.  1.
     999902    2    1    2    0    0 -0.12927223328E-01  0.16770775493E-01  0.99000514831E-02  0.10205551624E+01  0.10202874382E+01 0.  0.
     999903    2    3    3    0    0 -0.10663348007E+00  0.84923833280E-03 -0.74301661972E-01  0.13144083541E+00  0.19609588602E-01 0.  0.
         14    1    1    2    0    0  0.12927223328E-01 -0.16770775493E-01 -0.99000514831E-02  0.23374837603E-01  0.00000000000E+00 0.  1.
     999901    1    3    3    0    0  0.93706256741E-01  0.15921537160E-01  0.84201713455E-01  0.88911432698E+00  0.88000000000E+00 0. -1.
        -11    1    4    4    0    0 -0.71557214335E-01  0.71017086681E-02 -0.41598833949E-01  0.83075828592E-01  0.51100000000E-03 0.  1.
         11    1    4    4    0    0 -0.35076265734E-01 -0.62524703353E-02 -0.32702828023E-01  0.48365006821E-01  0.51100000000E-03 0. -1.
</event>
<event>
 8    1  0.1166736E+005  0.1043930E+01  0.7957747E-01            NaN
         13   -1    0    0    0    0  0.00000000000E+00  0.00000000000E+00  0.74505805969E-08  0.10566000000E+00  0.10566000000E+00 0. -1.
     999900   -1    0    0    0    0 -0.00000000000E+00 -0.00000000000E+00 -0.74505805969E-08  0.93827000000E+00  0.93827000000E+00 0. -1.
     999902    2    1    2    0    0  0.22421756385E-01  0.96742050252E-02 -0.10904462123E-04  0.10195102227E+01  0.10192177239E+01 0.  0.
     999903    2    3    3    0    0  0.10189305471E+00 -0.44476240890E-01 -0.68205624010E-01  0.13164847798E+00  0.17860123344E-01 0.  0.
         14    1    1    2    0    0 -0.22421756385E-01 -0.96742050252E-02  0.10904462123E-04  0.24419777254E-01  0.00000000000E+00 0.  1.
     999901    1    3    3    0    0 -0.79471298322E-01  0.54150445915E-01  0.68194719548E-01  0.88786174477E+00  0.88000000000E+00 0. -1.
        -11    1    4    4    0    0  0.23570346444E-01 -0.16246218544E-01 -0.24138032136E-01  0.37448719135E-01  0.51100000000E-03 0.  1.
         11    1    4    4    0    0  0.78322708262E-01 -0.28230022347E-01 -0.44067591873E-01  0.94199758841E-01  0.51100000000E-03 0. -1.
</event>
<event>
 8    1  0.1166736E+005  0.1043930E+01  0.7957747E-01            NaN
         13   -1    0    0    0    0  0.00000000000E+00  0.00000000000E+00  0.74505805969E-08  0.10566000000E+00  0.10566000000E+00 0. -1.
     999900   -1    0    0    0    0 -0.00000000000E+00 -0.00000000000E+00 -0.74505805969E-08  0.93827000000E+00  0.93827000000E+00 0. -1.
     999902    2    1    2    0    0 -0.76334810293E-02 -0.17306994131E-01 -0.13406837498E-01  0.10207449753E+01  0.10204816310E+01 0.  0.
     999903    2    3    3    0    0 -0.61789523001E-01 -0.53131613911E-01  0.10073644409E+00  0.13100064742E+00  0.19298313624E-01 0.  0.
         14    1    1    2    0    0  0.76334810293E-02  0.17306994131E-01  0.13406837498E-01  0.23185024697E-01  0.00000000000E+00 0. -1.
     999901    1    3    3    0    0  0.54156041972E-01  0.35824619780E-01 -0.11414328158E+00  0.88974432788E+00  0.88000000000E+00 0. -1.
        -11    1    4    4    0    0 -0.20374653824E-01 -0.29082597054E-01  0.48773306754E-01  0.60332582760E-01  0.51100000000E-03 0. -1.
         11    1    4    4    0    0 -0.41414869178E-01 -0.24049016857E-01  0.51963137332E-01  0.70668064663E-01  0.51100000000E-03 0.  1.
</event>
<event>
 8    1  0.1166736E+005  0.1043930E+01  0.7957747E-01            NaN
         13   -1    0    0    0    0  0.00000000000E+00  0.00000000000E+00  0.74505805969E-08  0.10566000000E+00  0.10566000000E+00 0. -1.
     999900   -1    0    0    0    0 -0.00000000000E+00 -0.00000000000E+00 -0.74505805969E-08  0.93827000000E+00  0.93827000000E+00 0. -1.
     999902    2    1    2    0    0 -0.17436911900E-01  0.11671555307E-01 -0.12099437347E-01  0.10197087803E+01  0.10194210755E+01 0.  0.
     999903    2    3    3    0    0  0.39785919468E-01  0.31713347334E-01 -0.11899904083E+00  0.13116860052E+00  0.21348870135E-01 0.  0.
         14    1    1    2    0    0  0.17436911900E-01 -0.11671555307E-01  0.12099437347E-01  0.24221219705E-01  0.00000000000E+00 0. -1.
     999901    1    3    3    0    0 -0.57222831368E-01 -0.20041792026E-01  0.10689960348E+00  0.88854017978E+00  0.88000000000E+00 0.  1.
        -11    1    4    4    0    0  0.15866539645E-01  0.12319953518E-01 -0.73710359339E-01  0.76400304514E-01  0.51100000000E-03 0.  1.
         11    1    4    4    0    0  0.23919379823E-01  0.19393393816E-01 -0.45288681490E-01  0.54768296001E-01  0.51100000000E-03 0. -1.
</event>
<event>
 8    1  0.1166736E+005  0.1043930E+01  0.7957747E-01            NaN
         13   -1    0    0    0    0  0.00000000000E+00  0.00000000000E+00  0.74505805969E-08  0.10566000000E+00  0.10566000000E+00 0.  1.
     999900   -1    0    0    0    0 -0.00000000000E+00 -0.00000000000E+00 -0.74505805969E-08  0.93827000000E+00  0.93827000000E+00 0. -1.
     999902    2    1    2    0    0  0.20557228972E-01  0.12863973440E-01 -0.70486073969E-02  0.10186760034E+01  0.10183629194E+01 0.  0.
     999903    2    3    3    0    0 -0.11368258059E+00 -0.15902969862E-01 -0.50159899482E-01  0.12698858792E+00  0.20819518868E-01 0.  0.
         14    1    1    2    0    0 -0.20557228972E-01 -0.12863973440E-01  0.70486073969E-02  0.25253996554E-01  0.00000000000E+00 0.  1.
     999901    1    3    3    0    0  0.13423980956E+00  0.28766943302E-01  0.43111292085E-01  0.89168741552E+00  0.88000000000E+00 0.  1.
        -11    1    4    4    0    0 -0.74341483831E-01 -0.14879172098E-02 -0.37092858733E-01  0.83096398273E-01  0.51100000000E-03 0.  1.
         11    1    4    4    0    0 -0.39341096761E-01 -0.14415052652E-01 -0.13067040748E-01  0.43892189650E-01  0.51100000000E-03 0. -1.
</event>
<event>
 8    1  0.1166736E+005  0.1043930E+01  0.7957747E-01            NaN
         13   -1    0    0    0    0  0.00000000000E+00  0.00000000000E+00  0.74505805969E-08  0.10566000000E+00  0.10566000000E+00 0.  1.
     999900   -1    0    0    0    0 -0.00000000000E+00 -0.00000000000E+00 -0.74505805969E-08  0.93827000000E+00  0.93827000000E+00 0.  1.
     999902    2    1    2    0    0  0.14276042515E-01  0.18485134958E-01  0.58533494867E-02  0.10198516424E+01  0.10195673618E+01 0.  0.
     999903    2    3    3    0    0  0.10225421417E+00  0.79197376891E-01  0.26282272109E-01  0.13314792870E+00  0.17591596566E-01 0.  0.
         14    1    1    2    0    0 -0.14276042515E-01 -0.18485134958E-01 -0.58533494867E-02  0.24078357596E-01  0.00000000000E+00 0.  1.
     999901    1    3    3    0    0 -0.87978171652E-01 -0.60712241933E-01 -0.20428922623E-01  0.88670371370E+00  0.88000000000E+00 0.  1.
        -11    1    4    4    0    0  0.68670670687E-01  0.44207126741E-01  0.11725333190E-01  0.82508639709E-01  0.51100000000E-03 0.  1.
         11    1    4    4    0    0  0.33583543481E-01  0.34990250150E-01  0.14556938919E-01  0.50639288995E-01  0.51100000000E-03 0. -1.
</event>
<event>
 8    1  0.1166736E+005  0.1043930E+01  0.7957747E-01            NaN
         13   -1    0    0    0    0  0.00000000000E+00  0.00000000000E+00  0.74505805969E-08  0.10566000000E+00  0.10566000000E+00 0. -1.
     999900   -1    0    0    0    0 -0.00000000000E+00 -0.00000000000E+00 -0.74505805969E-08  0.93827000000E+00  0.93827000000E+00 0. -1.
     999902    2    1    2    0    0  0.16568755268E-01  0.52513347167E-02  0.15016581424E-01  0.10209605010E+01  0.10207020852E+01 0.  0.
     999903    2    3    3    0    0  0.52858471203E-01  0.11823411141E+00 -0.19129075204E-01  0.13233910963E+00  0.19349298153E-01 0.  0.
         14    1    1    2    0    0 -0.16568755268E-01 -0.52513347167E-02 -0.15016581424E-01  0.22969499017E-01  0.00000000000E+00 0.  1.
     999901    1    3    3    0    0 -0.36289715936E-01 -0.11298277669E+00  0.34145656628E-01  0.88862139136E+00  0.88000000000E+00 0. -1.
        -11    1    4    4    0    0  0.29187025520E-01  0.64222023618E-01 -0.20115952160E-01  0.73357095284E-01  0.51100000000E-03 0.  1.
         11    1    4    4    0    0  0.23671445684E-01  0.54012087794E-01  0.98687695599E-03  0.58982014341E-01  0.51100000000E-03 0. -1.
</event>
<event>
 8    1  0.1166736E+005  0.1043930E+01  0.7957747E-01            NaN
         13   -1    0    0    0    0  0.00000000000E+00  0.00000000000E+00  0.74505805969E-08  0.10566000000E+00  0.10566000000E+00 0. -1.
     999900   -1    0    0    0    0 -0.00000000000E+00 -0.00000000000E+00 -0.74505805969E-08  0.93827000000E+00  0.93827000000E+00 0. -1.
     999902    2    1    2    0    0  0.81887501323E-03  0.57794053323E-02 -0.23181415813E-01  0.10200249771E+01  0.10197448228E+01 0.  0.
     999903    2    3    3    0    0  0.67917754921E-01 -0.76604160630E-01  0.74644233978E-01  0.12825192893E+00  0.19894138563E-01 0.  0.
         14    1    1    2    0    0 -0.81887501323E-03 -0.57794053323E-02  0.23181415813E-01  0.23905022932E-01  0.00000000000E+00 0. -1.
     999901    1    3    3    0    0 -0.67098879908E-01  0.82383565962E-01 -0.97825649791E-01  0.89177304814E+00  0.88000000000E+00 0. -1.
        -11    1    4    4    0    0  0.58732384617E-01 -0.66828226070E-01  0.55471139695E-01  0.10484661779E+00  0.51100000000E-03 0.  1.
         11    1    4    4    0    0  0.91853703044E-02 -0.97759345602E-02  0.19173094283E-01  0.23405311139E-01  0.51100000000E-03 0. -1.
</event>
<event>
 8    1  0.1166736E+005  0.1043930E+01  0.7957747E-01            NaN
         13   -1    0    0    0    0  0.00000000000E+00  0.00000000000E+00  0.74505805969E-08  0.10566000000E+00  0.10566000000E+00 0.  1.
     999900   -1    0    0    0    0 -0.00000000000E+00 -0.00000000000E+00 -0.74505805969E-08  0.93827000000E+00  0.93827000000E+00 0. -1.
     999902    2    1    2    0    0 -0.12952035914E-01  0.21596106623E-01  0.40914710134E-02  0.10184175091E+01  0.10180979008E+01 0.  0.
     999903    2    3    3    0    0 -0.14210908600E-01  0.10328924437E+00 -0.76489401475E-01  0.13096687358E+00  0.20762358083E-01 0.  0.
         14    1    1    2    0    0  0.12952035914E-01 -0.21596106623E-01 -0.40914710134E-02  0.25512490875E-01  0.00000000000E+00 0.  1.
     999901    1    3    3    0    0  0.12588726850E-02 -0.81693137743E-01  0.80580872488E-01  0.88745063554E+00  0.88000000000E+00 0.  1.
        -11    1    4    4    0    0 -0.13068759467E-01  0.62807855842E-01 -0.35405646134E-01  0.73276463675E-01  0.51100000000E-03 0.  1.
         11    1    4    4    0    0 -0.11421491326E-02  0.40481388523E-01 -0.41083755341E-01  0.57690409908E-01  0.51100000000E-03 0. -1.
</event>
<event>
 8    1  0.1166736E+005  0.1043930E+01  0.7957747E-01            NaN
         13   -1    0    0    0    0  0.00000000000E+00  0.00000000000E+00  0.74505805969E-08  0.10566000000E+00  0.10566000000E+00 0.  1.
     999900   -1    0    0    0    0 -0.00000000000E+00 -0.00000000000E+00 -0.74505805969E-08  0.93827000000E+00  0.93827000000E+00 0.  1.
     999902    2    1    2    0    0 -0.19114896910E-01  0.45258858201E-02  0.69979702112E-02  0.10230773140E+01  0.10228647789E+01 0.  0.
     999903    2    3    3    0    0 -0.77654026161E-01 -0.10462155128E+00  0.26743789436E-01  0.13418480641E+00  0.17734577159E-01 0.  0.
         14    1    1    2    0    0  0.19114896910E-01 -0.45258858201E-02 -0.69979702112E-02  0.20852686000E-01  0.00000000000E+00 0. -1.
     999901    1    3    3    0    0  0.58539129251E-01  0.10914743710E+00 -0.19745819225E-01  0.88889250759E+00  0.88000000000E+00 0.  1.
        -11    1    4    4    0    0 -0.59232768838E-01 -0.65903761537E-01  0.17780682426E-01  0.90378318625E-01  0.51100000000E-03 0.  1.
         11    1    4    4    0    0 -0.18421257323E-01 -0.38717789738E-01  0.89631070102E-02  0.43806487782E-01  0.51100000000E-03 0. -1.
</event>
<event>
 8    1  0.1166736E+005  0.1043930E+01  0.7957747E-01            NaN
         13   -1    0    0    0    0  0.00000000000E+00  0.00000000000E+00  0.74505805969E-08  0.10566000000E+00  0.10566000000E+00 0.  1.
     999900   -1    0    0    0    0 -0.00000000000E+00 -0.00000000000E+00 -0.74505805969E-08  0.93827000000E+00  0.93827000000E+00 0. -1.
     999902    2    1    2    0    0  0.22805341124E-01 -0.75976915246E-03  0.66382131261E-02  0.10201660208E+01  0.10198892015E+01 0.  0.
     999903    2    3    3    0    0  0.62162693680E-01 -0.74153601454E-01 -0.86470356552E-01  0.13134384425E+00  0.20276236464E-01 0.  0.
         14    1    1    2    0    0 -0.22805341124E-01  0.75976915246E-03 -0.66382131261E-02  0.23763979180E-01  0.00000000000E+00 0. -1.
     999901    1    3    3    0    0 -0.39357352556E-01  0.73393832302E-01  0.93108569679E-01  0.88882217657E+00  0.88000000000E+00 0.  1.
        -11    1    4    4    0    0  0.67247959935E-02 -0.17695439199E-01 -0.23737794045E-01  0.30366024381E-01  0.51100000000E-03 0. -1.
         11    1    4    4    0    0  0.55437897686E-01 -0.56458162256E-01 -0.62732562508E-01  0.10097781987E+00  0.51100000000E-03 0.  1.
</event>
<event>
 8    1  0.1166736E+005  0.1043930E+01  0.7957747E-01            NaN
         13   -1    0    0    0    0  0.00000000000E+00  0.00000000000E+00  0.74505805969E-08  0.10566000000E+00  0.10566000000E+00 0.  1.
     999900   -1    0    0    0    0 -0.00000000000E+00 -0.00000000000E+00 -0.74505805969E-08  0.93827000000E+00  0.93827000000E+00 0. -1.
     999902    2    1    2    0    0 -0.20445008035E-01 -0.82460229967E-02 -0.10742439181E-01  0.10194066387E+01  0.10191116228E+01 0.  0.
     999903    2    3    3    0    0  0.10396867669E+00 -0.43889175712E-01 -0.58091662775E-01  0.12868156988E+00  0.21179227248E-01 0.  0.
         14    1    1    2    0    0  0.20445008035E-01  0.82460229967E-02  0.10742439181E-01  0.24523361278E-01  0.00000000000E+00 0.  1.
     999901    1    3    3    0    0 -0.12441368472E+00  0.35643152715E-01  0.47349223594E-01  0.89072506884E+00  0.88000000000E+00 0. -1.
        -11    1    4    4    0    0  0.73740499013E-01 -0.41199822497E-01 -0.42675628560E-01  0.94639087920E-01  0.51100000000E-03 0. -1.
         11    1    4    4    0    0  0.30228177676E-01 -0.26893532148E-02 -0.15416034216E-01  0.34042481964E-01  0.51100000000E-03 0.  1.
</event>
<event>
 8    1  0.1166736E+005  0.1043930E+01  0.7957747E-01            NaN
         13   -1    0    0    0    0  0.00000000000E+00  0.00000000000E+00  0.74505805969E-08  0.10566000000E+00  0.10566000000E+00 0. -1.
     999900   -1    0    0    0    0 -0.00000000000E+00 -0.00000000000E+00 -0.74505805969E-08  0.93827000000E+00  0.93827000000E+00 0.  1.
     999902    2    1    2    0    0 -0.16639263302E-01  0.14033842663E-01  0.10324587281E-01  0.10198382810E+01  0.10195536810E+01 0.  0.
     999903    2    3    3    0    0  0.65734188349E-01  0.34210655330E-01  0.10565250159E+00  0.13063644756E+00  0.20299701510E-01 0.  0.
         14    1    1    2    0    0  0.16639263302E-01 -0.14033842663E-01 -0.10324587281E-01  0.24091719026E-01  0.00000000000E+00 0.  1.
     999901    1    3    3    0    0 -0.82373451651E-01 -0.20176812667E-01 -0.95327914311E-01  0.88920183342E+00  0.88000000000E+00 0.  1.
        -11    1    4    4    0    0  0.44459872637E-01  0.12025265145E-01  0.65197188152E-01  0.79826197083E-01  0.51100000000E-03 0.  1.
         11    1    4    4    0    0  0.21274315712E-01  0.22185390185E-01  0.40455313440E-01  0.50810250473E-01  0.51100000000E-03 0. -1.
</event>
<event>
 8    1  0.1166736E+005  0.1043930E+01  0.7957747E-01            NaN
         13   -1    0    0    0    0  0.00000000000E+00  0.00000000000E+00  0.74505805969E-08  0.10566000000E+00  0.10566000000E+00 0. -1.
     999900   -1    0    0    0    0 -0.00000000000E+00 -0.00000000000E+00 -0.74505805969E-08  0.93827000000E+00  0.93827000000E+00 0.  1.
     999902    2    1    2    0    0 -0.18305165417E-01  0.17351795292E-01 -0.31209401296E-02  0.10185153556E+01  0.10181982251E+01 0.  0.
     999903    2    3    3    0    0  0.79766256261E-01  0.25069357939E-01 -0.95337701011E-01  0.12824489364E+00  0.19140197608E-01 0.  0.
         14    1    1    2    0    0  0.18305165417E-01 -0.17351795292E-01  0.31209401296E-02  0.25414644363E-01  0.00000000000E+00 0. -1.
     999901    1    3    3    0    0 -0.98071421678E-01 -0.77175626472E-02  0.92216760881E-01  0.89027046200E+00  0.88000000000E+00 0. -1.
        -11    1    4    4    0    0  0.54794482944E-01  0.21034271949E-01 -0.53873688541E-01  0.79671270830E-01  0.51100000000E-03 0.  1.
         11    1    4    4    0    0  0.24971773317E-01  0.40350859896E-02 -0.41464012469E-01  0.48573622807E-01  0.51100000000E-03 0. -1.
</event>
<event>
 8    1  0.1166736E+005  0.1043930E+01  0.7957747E-01            NaN
         13   -1    0    0    0    0  0.00000000000E+00  0.00000000000E+00  0.74505805969E-08  0.10566000000E+00  0.10566000000E+00 0.  1.
     999900   -1    0    0    0    0 -0.00000000000E+00 -0.00000000000E+00 -0.74505805969E-08  0.93827000000E+00  0.93827000000E+00 0. -1.
     999902    2    1    2    0    0  0.82480250064E-03  0.16354314726E-01 -0.16243715636E-01  0.10208648270E+01  0.10206042292E+01 0.  0.
     999903    2    3    3    0    0 -0.78046176638E-01 -0.96650891836E-01  0.28693968298E-01  0.12900710093E+00  0.19669460912E-01 0.  0.
         14    1    1    2    0    0 -0.82480250064E-03 -0.16354314726E-01  0.16243715636E-01  0.23065173032E-01  0.00000000000E+00 0.  1.
     999901    1    3    3    0    0  0.78870979138E-01  0.11300520656E+00 -0.44937683934E-01  0.89185772604E+00  0.88000000000E+00 0.  1.
        -11    1    4    4    0    0 -0.23226146685E-01 -0.42273384416E-01  0.15541507216E-01  0.50678323644E-01  0.51100000000E-03 0. -1.
         11    1    4    4    0    0 -0.54820029953E-01 -0.54377507420E-01  0.13152461082E-01  0.78328777284E-01  0.51100000000E-03 0.  1.
</event>
<event>
 8    1  0.1166736E+005  0.1043930E+01  0.7957747E-01            NaN
         13   -1    0    0    0    0  0.00000000000E+00  0.00000000000E+00  0.74505805969E-08  0.10566000000E+00  0.10566000000E+00 0.  1.
     999900   -1    0    0    0    0 -0.00000000000E+00 -0.00000000000E+00 -0.74505805969E-08  0.93827000000E+00  0.93827000000E+00 0.  1.
     999902    2    1    2    0    0 -0.19934657109E-02  0.16558989628E-01  0.16902519600E-01  0.10201840696E+01  0.10199076755E+01 0.  0.
     999903    2    3    3    0    0 -0.74241095362E-01 -0.84570123005E-01 -0.57658932588E-01  0.12832857255E+00  0.21904887141E-01 0.  0.
         14    1    1    2    0    0  0.19934657109E-02 -0.16558989628E-01 -0.16902519600E-01  0.23745930427E-01  0.00000000000E+00 0. -1.
     999901    1    3    3    0    0  0.72247629651E-01  0.10112911263E+00  0.74561452188E-01  0.89185549702E+00  0.88000000000E+00 0.  1.
        -11    1    4    4    0    0 -0.62605083358E-01 -0.68904127681E-01 -0.37796178008E-01  0.10047879113E+00  0.51100000000E-03 0. -1.
         11    1    4    4    0    0 -0.11636012004E-01 -0.15665995324E-01 -0.19862754580E-01  0.27849781424E-01  0.51100000000E-03 0.  1.
</event>
<event>
 8    1  0.1166736E+005  0.1043930E+01  0.7957747E-01            NaN
         13   -1    0    0    0    0  0.00000000000E+00  0.00000000000E+00  0.74505805969E-08  0.10566000000E+00  0.10566000000E+00 0. -1.
     999900   -1    0    0    0    0 -0.00000000000E+00 -0.00000000000E+00 -0.74505805969E-08  0.93827000000E+00  0.93827000000E+00 0.  1.
     999902    2    1    2    0    0 -0.66743933686E-03  0.14295228589E-01  0.20739479701E-01  0.10187322808E+01  0.10184206080E+01 0.  0.
     999903    2    3    3    0    0  0.63306537698E-01  0.30272434089E-01 -0.10553385959E+00  0.12727678719E+00  0.11740828574E-01 0.  0.
         14    1    1    2    0    0  0.66743933686E-03 -0.14295228589E-01 -0.20739479701E-01  0.25197719221E-01  0.00000000000E+00 0.  1.
     999901    1    3    3    0    0 -0.63973977035E-01 -0.15977205500E-01  0.12627333929E+00  0.89145549359E+00  0.88000000000E+00 0. -1.
        -11    1    4    4    0    0  0.82811894566E-02  0.87490904249E-02 -0.18309470888E-01  0.21923104873E-01  0.51100000000E-03 0. -1.
         11    1    4    4    0    0  0.55025348241E-01  0.21523343664E-01 -0.87224388706E-01  0.10535368232E+00  0.51100000000E-03 0.  1.
</event>
<event>
 8    1  0.1166736E+005  0.1043930E+01  0.7957747E-01            NaN
         13   -1    0    0    0    0  0.00000000000E+00  0.00000000000E+00  0.74505805969E-08  0.10566000000E+00  0.10566000000E+00 0. -1.
     999900   -1    0    0    0    0 -0.00000000000E+00 -0.00000000000E+00 -0.74505805969E-08  0.93827000000E+00  0.93827000000E+00 0. -1.
     999902    2    1    2    0    0 -0.29704339633E-03  0.23744607325E-01  0.27138683331E-02  0.10200289604E+01  0.10197489007E+01 0.  0.
     999903    2    3    3    0    0 -0.64405601107E-01 -0.44438468344E-01  0.10125151346E+00  0.12959731987E+00  0.20511884779E-01 0.  0.
         14    1    1    2    0    0  0.29704339633E-03 -0.23744607325E-01 -0.27138683331E-02  0.23901039583E-01  0.00000000000E+00 0.  1.
     999901    1    3    3    0    0  0.64108557711E-01  0.68183075669E-01 -0.98537645126E-01  0.89043164055E+00  0.88000000000E+00 0. -1.
        -11    1    4    4    0    0 -0.33658407816E-01 -0.18939289557E-01  0.65226126177E-01  0.75804312296E-01  0.51100000000E-03 0. -1.
         11    1    4    4    0    0 -0.30747193291E-01 -0.25499178787E-01  0.36025387282E-01  0.53793007575E-01  0.51100000000E-03 0.  1.
</event>
<event>
 8    1  0.1166736E+005  0.1043930E+01  0.7957747E-01            NaN
         13   -1    0    0    0    0  0.00000000000E+00  0.00000000000E+00  0.74505805969E-08  0.10566000000E+00  0.10566000000E+00 0. -1.
     999900   -1    0    0    0    0 -0.00000000000E+00 -0.00000000000E+00 -0.74505805969E-08  0.93827000000E+00  0.93827000000E+00 0.  1.
     999902    2    1    2    0    0 -0.13050685130E-01  0.19275464877E-01  0.94859434706E-02  0.10187934320E+01  0.10184832890E+01 0.  0.
     999903    2    3    3    0    0  0.23328624822E-01  0.12321973480E+00 -0.32008013980E-01  0.13095920536E+00  0.19961781712E-01 0.  0.
         14    1    1    2    0    0  0.13050685130E-01 -0.19275464877E-01 -0.94859434706E-02  0.25136568025E-01  0.00000000000E+00 0. -1.
     999901    1    3    3    0    0 -0.36379309952E-01 -0.10394426992E+00  0.41493957451E-01  0.88783422661E+00  0.88000000000E+00 0.  1.
        -11    1    4    4    0    0  0.87514488923E-02  0.38372318579E-01 -0.74948807417E-03  0.39368077730E-01  0.51100000000E-03 0.  1.
         11    1    4    4    0    0  0.14577175930E-01  0.84847416222E-01 -0.31258525906E-01  0.91591127630E-01  0.51100000000E-03 0. -1.
</event>
<event>
 8    1  0.1166736E+005  0.1043930E+01  0.7957747E-01            NaN
         13   -1    0    0    0    0  0.00000000000E+00  0.00000000000E+00  0.74505805969E-08  0.10566000000E+00  0.10566000000E+00 0. -1.
     999900   -1    0    0    0    0 -0.00000000000E+00 -0.00000000000E+00 -0.74505805969E-08  0.93827000000E+00  0.93827000000E+00 0.  1.
     999902    2    1    2    0    0  0.15228643915E-01  0.73224782057E-02  0.16496672199E-01  0.10203149523E+01  0.10200416322E+01 0.  0.
     999903    2    3    3    0    0  0.32167023379E-01  0.23906319656E-01 -0.12221240462E+00  0.12913475704E+00  0.11562184887E-01 0.  0.
         14    1    1    2    0    0 -0.15228643915E-01 -0.73224782057E-02 -0.16496672199E-01  0.23615047664E-01  0.00000000000E+00 0. -1.
     999901    1    3    3    0    0 -0.16938379464E-01 -0.16583841451E-01  0.13870907682E+00  0.89118019530E+00  0.88000000000E+00 0. -1.
        -11    1    4    4    0    0  0.25654249722E-01  0.16595283372E-01 -0.76394231369E-01  0.82279302782E-01  0.51100000000E-03 0. -1.
         11    1    4    4    0    0  0.65127736572E-02  0.73110362843E-02 -0.45818173254E-01  0.46855454257E-01  0.51100000000E-03 0.  1.
</event>
<event>
 8    1  0.1166736E+005  0.1043930E+01  0.7957747E-01            NaN
         13   -1    0    0    0    0  0.00000000000E+00  0.00000000000E+00  0.74505805969E-08  0.10566000000E+00  0.10566000000E+00 0. -1.
     999900   -1    0    0    0    0 -0.00000000000E+00 -0.00000000000E+00 -0.74505805969E-08  0.93827000000E+00  0.93827000000E+00 0. -1.
     999902    2    1    2    0    0 -0.73596889962E-02 -0.18412526996E-04 -0.23285675258E-01  0.10195089428E+01  0.10192164130E+01 0.  0.
     999903    2    3    3    0    0 -0.38780169068E-01  0.10930655761E+00 -0.58661712196E-01  0.13148267089E+00  0.19866333753E-01 0.  0.
         14    1    1    2    0    0  0.73596889962E-02  0.18412526996E-04  0.23285675258E-01  0.24421057171E-01  0.00000000000E+00 0. -1.
     999901    1    3    3    0    0  0.31420480072E-01 -0.10932497014E+00  0.35376036939E-01  0.88802627194E+00  0.88000000000E+00 0. -1.
        -11    1    4    4    0    0 -0.40093546111E-01  0.10358263289E+00 -0.52171659410E-01  0.12271510683E+00  0.51100000000E-03 0.  1.
         11    1    4    4    0    0  0.13133770429E-02  0.57239247171E-02 -0.64900527865E-02  0.87675640628E-02  0.51100000000E-03 0. -1.
</event>
<event>
 8    1  0.1166736E+005  0.1043930E+01  0.7957747E-01            NaN
         13   -1    0    0    0    0  0.00000000000E+00  0.00000000000E+00  0.74505805969E-08  0.10566000000E+00  0.10566000000E+00 0.  1.
     999900   -1    0    0    0    0 -0.00000000000E+00 -0.00000000000E+00 -0.74505805969E-08  0.93827000000E+00  0.93827000000E+00 0.  1.
     999902    2    1    2    0    0 -0.16978156693E-01 -0.13219748690E-01  0.14108005467E-01  0.10181995632E+01  0.10178744005E+01 0.  0.
     999903    2    3    3    0    0  0.26064754101E-01  0.13048928721E-02 -0.12214306562E+00  0.12655613011E+00  0.20407141865E-01 0.  0.
         14    1    1    2    0    0  0.16978156693E-01  0.13219748690E-01 -0.14108005467E-01  0.25730436809E-01  0.00000000000E+00 0. -1.
     999901    1    3    3    0    0 -0.43042910794E-01 -0.14524641562E-01  0.13625107108E+00  0.89164343308E+00  0.88000000000E+00 0. -1.
        -11    1    4    4    0    0  0.58105827043E-02  0.49385258754E-02 -0.71239576555E-01  0.71648379590E-01  0.51100000000E-03 0.  1.
         11    1    4    4    0    0  0.20254171396E-01 -0.36336330032E-02 -0.50903489061E-01  0.54907750521E-01  0.51100000000E-03 0. -1.
</event>
<event>
 8    1  0.1166736E+005  0.1043930E+01  0.7957747E-01            NaN
         13   -1    0    0    0    0  0.00000000000E+00  0.00000000000E+00  0.74505805969E-08  0.10566000000E+00  0.10566000000E+00 0.  1.
     999900   -1    0    0    0    0 -0.00000000000E+00 -0.00000000000E+00 -0.74505805969E-08  0.93827000000E+00  0.93827000000E+00 0.  1.
     999902    2    1    2    0    0  0.21816970096E-01 -0.93521878778E-02  0.42017163395E-02  0.10198240252E+01  0.10195390842E+01 0.  0.
     999903    2    3    3    0    0 -0.56772902506E-01  0.56424439288E-01  0.98929459426E-01  0.12882667497E+00  0.20059771517E-01 0.  0.
         14    1    1    2    0    0 -0.21816970096E-01  0.93521878778E-02 -0.42017163395E-02  0.24105974829E-01  0.00000000000E+00 0. -1.
     999901    1    3    3    0    0  0.78589872602E-01 -0.65776627165E-01 -0.94727743086E-01  0.89099735020E+00  0.88000000000E+00 0.  1.
        -11    1    4    4    0    0 -0.52895261657E-01  0.55282776380E-01  0.85238815758E-01  0.11454261610E+00  0.51100000000E-03 0. -1.
         11    1    4    4    0    0 -0.38776408494E-02  0.11416629081E-02  0.13690643668E-01  0.14284058870E-01  0.51100000000E-03 0.  1.
</event>
<event>
 8    1  0.1166736E+005  0.1043930E+01  0.7957747E-01            NaN
         13   -1    0    0    0    0  0.00000000000E+00  0.00000000000E+00  0.74505805969E-08  0.10566000000E+00  0.10566000000E+00 0. -1.
     999900   -1    0    0    0    0 -0.00000000000E+00 -0.00000000000E+00 -0.74505805969E-08  0.93827000000E+00  0.93827000000E+00 0.  1.
     999902    2    1    2    0    0 -0.17462742121E-03  0.98817117887E-02 -0.21069999765E-01  0.10206571916E+01  0.10203918262E+01 0.  0.
     999903    2    3    3    0    0 -0.58283807949E-01 -0.11486165094E+00  0.65796237700E-02  0.12953313449E+00  0.12055718803E-01 0.  0.
         14    1    1    2    0    0  0.17462742121E-03 -0.98817117887E-02  0.21069999765E-01  0.23272808440E-01  0.00000000000E+00 0. -1.
     999901    1    3    3    0    0  0.58109180528E-01  0.12474336273E+00 -0.27649623535E-01  0.89112405707E+00  0.88000000000E+00 0. -1.
        -11    1    4    4    0    0 -0.36074518345E-01 -0.63130810662E-01  0.84562170054E-02  0.73202724374E-01  0.51100000000E-03 0. -1.
         11    1    4    4    0    0 -0.22209289604E-01 -0.51730840279E-01 -0.18765932354E-02  0.56330410116E-01  0.51100000000E-03 0.  1.
</event>
<event>
 8    1  0.1166736E+005  0.1043930E+01  0.7957747E-01            NaN
         13   -1    0    0    0    0  0.00000000000E+00  0.00000000000E+00  0.74505805969E-08  0.10566000000E+00  0.10566000000E+00 0.  1.
     999900   -1    0    0    0    0 -0.00000000000E+00 -0.00000000000E+00 -0.74505805969E-08  0.93827000000E+00  0.93827000000E+00 0. -1.
     999902    2    1    2    0    0  0.63675826339E-02 -0.26561414403E-02 -0.22837410736E-01  0.10200731661E+01  0.10197941536E+01 0.  0.
     999903    2    3    3    0    0 -0.95738216595E-01 -0.49438503372E-01 -0.72797008740E-01  0.13152933201E+00  0.19763323707E-01 0.  0.
         14    1    1    2    0    0 -0.63675826339E-02  0.26561414403E-02  0.22837410736E-01  0.23856833928E-01  0.00000000000E+00 0.  1.
     999901    1    3    3    0    0  0.10210579923E+00  0.46782361932E-01  0.49959598005E-01  0.88854383407E+00  0.88000000000E+00 0.  1.
        -11    1    4    4    0    0 -0.61464949735E-01 -0.22757028815E-01 -0.37172374031E-01  0.75351635142E-01  0.51100000000E-03 0.  1.
         11    1    4    4    0    0 -0.34273266860E-01 -0.26681474558E-01 -0.35624634710E-01  0.56177696864E-01  0.51100000000E-03 0. -1.
</event>
<event>
 8    1  0.1166736E+005  0.1043930E+01  0.7957747E-01            NaN
         13   -1    0    0    0    0  0.00000000000E+00  0.00000000000E+00  0.74505805969E-08  0.10566000000E+00  0.10566000000E+00 0.  1.
     999900   -1    0    0    0    0 -0.00000000000E+00 -0.00000000000E+00 -0.74505805969E-08  0.93827000000E+00  0.93827000000E+00 0.  1.
     999902    2    1    2    0    0  0.17236267756E-02 -0.11045042874E-01  0.20880298020E-01  0.10202456020E+01  0.10199706553E+01 0.  0.
     999903    2    3    3    0    0 -0.60650233465E-01  0.90773111050E-01 -0.61796274794E-01  0.12834154296E+00  0.27102833098E-01 0.  0.
         14    1    1    2    0    0 -0.17236267756E-02  0.11045042874E-01 -0.20880298020E-01  0.23684397961E-01  0.00000000000E+00 0.  1.
     999901    1    3    3    0    0  0.62373860240E-01 -0.10181815392E+00  0.82676572814E-01  0.89190405908E+00  0.88000000000E+00 0. -1.
        -11    1    4    4    0    0 -0.49340012042E-01  0.52819371089E-01 -0.33508850061E-01  0.79670740576E-01  0.51100000000E-03 0.  1.
         11    1    4    4    0    0 -0.11310221423E-01  0.37953739961E-01 -0.28287424733E-01  0.48670802384E-01  0.51100000000E-03 0. -1.
</event>
<event>
 8    1  0.1166736E+005  0.1043930E+01  0.7957747E-01            NaN
         13   -1    0    0    0    0  0.00000000000E+00  0.00000000000E+00  0.74505805969E-08  0.10566000000E+00  0.10566000000E+00 0.  1.
     999900   -1    0    0    0    0 -0.00000000000E+00 -0.00000000000E+00 -0.74505805969E-08  0.93827000000E+00  0.93827000000E+00 0.  1.
     999902    2    1    2    0    0  0.15974973736E-01 -0.70944747812E-02  0.16381833499E-01  0.10199738770E+01  0.10196925095E+01 0.  0.
     999903    2    3    3    0    0  0.47987886660E-01 -0.52972408429E-01  0.11059949785E+00  0.13317819614E+00  0.19881390364E-01 0.  0.
         14    1    1    2    0    0 -0.15974973736E-01  0.70944747812E-02 -0.16381833499E-01  0.23956122956E-01  0.00000000000E+00 0.  1.
     999901    1    3    3    0    0 -0.32012912924E-01  0.45877933648E-01 -0.94217664350E-01  0.88679568090E+00  0.88000000000E+00 0.  1.
        -11    1    4    4    0    0  0.17523503774E-01 -0.18996443492E-01  0.23920067374E-01  0.35218869857E-01  0.51100000000E-03 0. -1.
         11    1    4    4    0    0  0.30464382886E-01 -0.33975964937E-01  0.86679430474E-01  0.97959326286E-01  0.51100000000E-03 0.  1.
</event>
<event>
 8    1  0.1166736E+005  0.1043930E+01  0.7957747E-01            NaN
         13   -1    0    0    0    0  0.00000000000E+00  0.00000000000E+00  0.74505805969E-08  0.10566000000E+00  0.10566000000E+00 0. -1.
     999900   -1    0    0    0    0 -0.00000000000E+00 -0.00000000000E+00 -0.74505805969E-08  0.93827000000E+00  0.93827000000E+00 0. -1.
     999902    2    1    2    0    0  0.27663490417E-02 -0.19446191801E-01  0.12957721028E-01  0.10203989652E+01  0.10201276090E+01 0.  0.
     999903    2    3    3    0    0 -0.10446299359E+00 -0.35617883391E-01 -0.66117121567E-01  0.13022342847E+00  0.20137450458E-01 0.  0.
         14    1    1    2    0    0 -0.27663490417E-02  0.19446191801E-01 -0.12957721028E-01  0.23531034759E-01  0.00000000000E+00 0.  1.
     999901    1    3    3    0    0  0.10722934263E+00  0.16171691591E-01  0.79074842596E-01  0.89017553677E+00  0.88000000000E+00 0.  1.
        -11    1    4    4    0    0 -0.25509212934E-01 -0.13301362219E-01 -0.86296429866E-02  0.30039607861E-01  0.51100000000E-03 0.  1.
         11    1    4    4    0    0 -0.78953780659E-01 -0.22316521173E-01 -0.57487478581E-01  0.10018382061E+00  0.51100000000E-03 0. -1.
</event>
<event>
 8    1  0.1166736E+005  0.1043930E+01  0.7957747E-01            NaN
         13   -1    0    0    0    0  0.00000000000E+00  0.00000000000E+00  0.74505805969E-08  0.10566000000E+00  0.10566000000E+00 0.  1.
     999900   -1    0    0    0    0 -0.00000000000E+00 -0.00000000000E+00 -0.74505805969E-08  0.93827000000E+00  0.93827000000E+00 0. -1.
     999902    2    1    2    0    0 -0.19708110758E-01 -0.11832446513E-01  0.64162600412E-02  0.10200640239E+01  0.10197847950E+01 0.  0.
     999903    2    3    3    0    0  0.53477001041E-01 -0.87580568725E-01  0.79142535688E-01  0.13080424763E+00  0.17778205302E-01 0.  0.
         14    1    1    2    0    0  0.19708110758E-01  0.11832446513E-01 -0.64162600412E-02  0.23865976055E-01  0.00000000000E+00 0. -1.
     999901    1    3    3    0    0 -0.73185111799E-01  0.75748122212E-01 -0.72726275647E-01  0.88925977632E+00  0.88000000000E+00 0. -1.
        -11    1    4    4    0    0  0.34122730117E-01 -0.64533558588E-01  0.47292860427E-01  0.86981703036E-01  0.51100000000E-03 0. -1.
         11    1    4    4    0    0  0.19354270924E-01 -0.23047010137E-01  0.31849675261E-01  0.43822544592E-01  0.51100000000E-03 0.  1.
</event>
<event>
 8    1  0.1166736E+005  0.1043930E+01  0.7957747E-01            NaN
         13   -1    0    0    0    0  0.00000000000E+00  0.00000000000E+00  0.74505805969E-08  0.10566000000E+00  0.10566000000E+00 0. -1.
     999900   -1    0    0    0    0 -0.00000000000E+00 -0.00000000000E+00 -0.74505805969E-08  0.93827000000E+00  0.93827000000E+00 0.  1.
     999902    2    1    2    0    0  0.15769035533E-01 -0.16643295742E-02 -0.83051374291E-02  0.10260300619E+01  0.10258739105E+01 0.  0.
     999903    2    3    3    0    0  0.10586904553E+00 -0.15678610873E-01 -0.84804837653E-01  0.13801732780E+00  0.20071089716E-01 0.  0.
         14    1    1    2    0    0 -0.15769035533E-01  0.16643295742E-02  0.83051374291E-02  0.17899938053E-01  0.00000000000E+00 0.  1.
     999901    1    3    3    0    0 -0.90100009995E-01  0.14014281299E-01  0.76499700224E-01  0.88801273415E+00  0.88000000000E+00 0. -1.
        -11    1    4    4    0    0  0.80779192427E-01 -0.31603566188E-02 -0.63398221584E-01  0.10273685514E+00  0.51100000000E-03 0. -1.
         11    1    4    4    0    0  0.25089853102E-01 -0.12518254254E-01 -0.21406616069E-01  0.35280472655E-01  0.51100000000E-03 0.  1.
</event>
<event>
 8    1  0.1246508E+005  0.1043930E+01  0.7957747E-01            NaN
         13   -1    0    0    0    0  0.00000000000E+00  0.00000000000E+00  0.74505805969E-08  0.10566000000E+00  0.10566000000E+00 0. -1.
     999900   -1    0    0    0    0 -0.00000000000E+00 -0.00000000000E+00 -0.74505805969E-08  0.93827000000E+00  0.93827000000E+00 0.  1.
     999902    2    1    2    0    0  0.16193104251E-01  0.12920998223E-01  0.14292071363E-01  0.10187619225E+01  0.10184509918E+01 0.  0.
     999903    2    3    3    0    0  0.75157639996E-01 -0.97446420322E-01  0.39572616208E-01  0.12955053623E+00  0.85366153011E-02 0.  0.
         14    1    1    2    0    0 -0.16193104251E-01 -0.12920998223E-01 -0.14292071363E-01  0.25168077483E-01  0.00000000000E+00 0.  1.
     999901    1    3    3    0    0 -0.58964535746E-01  0.11036741855E+00 -0.25280544845E-01  0.88921138629E+00  0.88000000000E+00 0. -1.
        -11    1    4    4    0    0  0.39762220116E-01 -0.44857084837E-01  0.18075966126E-01  0.62611451676E-01  0.51100000000E-03 0.  1.
         11    1    4    4    0    0  0.35395419880E-01 -0.52589335486E-01  0.21496650082E-01  0.66939084555E-01  0.51100000000E-03 0. -1.
</event>
<event>
 8    1  0.1166736E+005  0.1043930E+01  0.7957747E-01            NaN
         13   -1    0    0    0    0  0.00000000000E+00  0.00000000000E+00  0.74505805969E-08  0.10566000000E+00  0.10566000000E+00 0. -1.
     999900   -1    0    0    0    0 -0.00000000000E+00 -0.00000000000E+00 -0.74505805969E-08  0.93827000000E+00  0.93827000000E+00 0.  1.
     999902    2    1    2    0    0  0.56265133468E-02 -0.64939370435E-02  0.22456567622E-01  0.10198857429E+01  0.10196022765E+01 0.  0.
     999903    2    3    3    0    0  0.95559362137E-02  0.88461628843E-01 -0.89151466333E-01  0.12775999329E+00  0.21397575579E-01 0.  0.
         14    1    1    2    0    0 -0.56265133468E-02  0.64939370435E-02 -0.22456567622E-01  0.24044257114E-01  0.00000000000E+00 0.  1.
     999901    1    3    3    0    0 -0.39294228669E-02 -0.94955565887E-01  0.11160803396E+00  0.89212574960E+00  0.88000000000E+00 0. -1.
        -11    1    4    4    0    0 -0.20647761270E-02  0.41685608224E-01 -0.29720698724E-01  0.51239967673E-01  0.51100000000E-03 0. -1.
         11    1    4    4    0    0  0.11620712341E-01  0.46776020619E-01 -0.59430767609E-01  0.76520025613E-01  0.51100000000E-03 0.  1.
</event>
<event>
 8    1  0.1166736E+005  0.1043930E+01  0.7957747E-01            NaN
         13   -1    0    0    0    0  0.00000000000E+00  0.00000000000E+00  0.74505805969E-08  0.10566000000E+00  0.10566000000E+00 0.  1.
     999900   -1    0    0    0    0 -0.00000000000E+00 -0.00000000000E+00 -0.74505805969E-08  0.93827000000E+00  0.93827000000E+00 0.  1.
     999902    2    1    2    0    0 -0.27809762119E-03  0.24176751130E-01  0.12561688671E-02  0.10197190398E+01  0.10194315816E+01 0.  0.
     999903    2    3    3    0    0 -0.10584468859E-01  0.81832758599E-01  0.10132997344E+00  0.13211259388E+00  0.19425307763E-01 0.  0.
         14    1    1    2    0    0  0.27809762119E-03 -0.24176751130E-01 -0.12561688671E-02  0.24210960198E-01  0.00000000000E+00 0.  1.
     999901    1    3    3    0    0  0.10306371238E-01 -0.57656007470E-01 -0.10007380458E+00  0.88760644593E+00  0.88000000000E+00 0.  1.
        -11    1    4    4    0    0 -0.12723591874E-02  0.68305186312E-01  0.82814597120E-01  0.10735798057E+00  0.51100000000E-03 0.  1.
         11    1    4    4    0    0 -0.93121096721E-02  0.13527572288E-01  0.18515376325E-01  0.24754613307E-01  0.51100000000E-03 0. -1.
</event>
<event>
 8    1  0.1166736E+005  0.1043930E+01  0.7957747E-01            NaN
         13   -1    0    0    0    0  0.00000000000E+00  0.00000000000E+00  0.74505805969E-08  0.10566000000E+00  0.10566000000E+00 0. -1.
     999900   -1    0    0    0    0 -0.00000000000E+00 -0.00000000000E+00 -0.74505805969E-08  0.93827000000E+00  0.93827000000E+00 0.  1.
     999902    2    1    2    0    0 -0.50138924229E-02 -0.12232138485E-01 -0.19423533332E-01  0.10204345116E+01  0.10201639841E+01 0.  0.
     999903    2    3    3    0    0  0.33232544387E-01  0.12257575774E+00  0.10362499911E-01  0.12884987365E+00  0.19123026494E-01 0.  0.
         14    1    1    2    0    0  0.50138924229E-02  0.12232138485E-01  0.19423533332E-01  0.23495488424E-01  0.00000000000E+00 0. -1.
     999901    1    3    3    0    0 -0.38246436810E-01 -0.13480789623E+00 -0.29786033243E-01  0.89158463793E+00  0.88000000000E+00 0. -1.
        -11    1    4    4    0    0  0.14824446651E-01  0.40810514686E-01 -0.47615961597E-02  0.43682905655E-01  0.51100000000E-03 0. -1.
         11    1    4    4    0    0  0.18408097737E-01  0.81765243055E-01  0.15124096070E-01  0.85166967993E-01  0.51100000000E-03 0.  1.
</event>
<event>
 8    1  0.1166736E+005  0.1043930E+01  0.7957747E-01            NaN
         13   -1    0    0    0    0  0.00000000000E+00  0.00000000000E+00  0.74505805969E-08  0.10566000000E+00  0.10566000000E+00 0.  1.
     999900   -1    0    0    0    0 -0.00000000000E+00 -0.00000000000E+00 -0.74505805969E-08  0.93827000000E+00  0.93827000000E+00 0.  1.
     999902    2    1    2    0    0  0.10220148984E-01  0.19120737988E-01 -0.11012033229E-01  0.10196129496E+01  0.10193229361E+01 0.  0.
     999903    2    3    3    0    0  0.12139063575E-02  0.60160738058E-01  0.11348207086E+00  0.12985782821E+00  0.19081068330E-01 0.  0.
         14    1    1    2    0    0 -0.10220148984E-01 -0.19120737988E-01  0.11012033229E-01  0.24317050444E-01  0.00000000000E+00 0.  1.
     999901    1    3    3    0    0  0.90062426266E-02 -0.41040000070E-01 -0.12449410409E+00  0.88975512135E+00  0.88000000000E+00 0.  1.
        -11    1    4    4    0    0  0.89326341617E-02  0.41947660842E-01  0.70183966177E-01  0.82252346061E-01  0.51100000000E-03 0. -1.
         11    1    4    4    0    0 -0.77187278042E-02  0.18213077216E-01  0.43298104680E-01  0.47605482147E-01  0.51100000000E-03 0.  1.
</event>
<event>
 8    1  0.1166736E+005  0.1043930E+01  0.7957747E-01            NaN
         13   -1    0    0    0    0  0.00000000000E+00  0.00000000000E+00  0.74505805969E-08  0.10566000000E+00  0.10566000000E+00 0.  1.
     999900   -1    0    0    0    0 -0.00000000000E+00 -0.00000000000E+00 -0.74505805969E-08  0.93827000000E+00  0.93827000000E+00 0. -1.
     999902    2    1    2    0    0 -0.12191279072E-01  0.25811204421E-01 -0.74161886600E-02  0.10144368582E+01  0.10140080344E+01 0.  0.
     999903    2    3    3    0    0 -0.22859186284E-01  0.71900688480E-01  0.99767411954E-01  0.12667204192E+00  0.20000457852E-01 0.  0.
         14    1    1    2    0    0  0.12191279072E-01 -0.25811204421E-01  0.74161886600E-02  0.29493141801E-01  0.00000000000E+00 0.  1.
     999901    1    3    3    0    0  0.10667907213E-01 -0.46089484059E-01 -0.10718360061E+00  0.88776481628E+00  0.88000000000E+00 0. -1.
        -11    1    4    4    0    0 -0.13934047408E-01  0.37893087595E-01  0.37202422466E-01  0.54902869897E-01  0.51100000000E-03 0.  1.
         11    1    4    4    0    0 -0.89251388768E-02  0.34007600885E-01  0.62564989488E-01  0.71769172021E-01  0.51100000000E-03 0. -1.
</event>
<event>
 8    1  0.1166736E+005  0.1043930E+01  0.7957747E-01            NaN
         13   -1    0    0    0    0  0.00000000000E+00  0.00000000000E+00  0.74505805969E-08  0.10566000000E+00  0.10566000000E+00 0. -1.
     999900   -1    0    0    0    0 -0.00000000000E+00 -0.00000000000E+00 -0.74505805969E-08  0.93827000000E+00  0.93827000000E+00 0.  1.
     999902    2    1    2    0    0 -0.22510319205E-01 -0.84494247490E-02 -0.17432481287E-03  0.10198855071E+01  0.10196020351E+01 0.  0.
     999903    2    3    3    0    0 -0.23943364444E-01 -0.30250546204E-01  0.12452826404E+00  0.13082528520E+00  0.10935559250E-01 0.  0.
         14    1    1    2    0    0  0.22510319205E-01  0.84494247490E-02  0.17432481287E-03  0.24044492892E-01  0.00000000000E+00 0. -1.
     999901    1    3    3    0    0  0.14330452391E-02  0.21801121455E-01 -0.12470258885E+00  0.88906022191E+00  0.88000000000E+00 0.  1.
        -11    1    4    4    0    0 -0.24507403990E-01 -0.26628240266E-01  0.11632877244E+00  0.12182906242E+00  0.51100000000E-03 0.  1.
         11    1    4    4    0    0  0.56403954640E-03 -0.36223059384E-02  0.81994915951E-02  0.89962227818E-02  0.51100000000E-03 0. -1.
</event>
<event>
 8    1  0.1166736E+005  0.1043930E+01  0.7957747E-01            NaN
         13   -1    0    0    0    0  0.00000000000E+00  0.00000000000E+00  0.74505805969E-08  0.10566000000E+00  0.10566000000E+00 0.  1.
     999900   -1    0    0    0    0 -0.00000000000E+00 -0.00000000000E+00 -0.74505805969E-08  0.93827000000E+00  0.93827000000E+00 0. -1.
     999902    2    1    2    0    0 -0.16547486947E-01 -0.11339582349E-01  0.10034311725E-01  0.10215002683E+01  0.10212539867E+01 0.  0.
     999903    2    3    3    0    0 -0.12701866558E+00  0.19325087732E-01 -0.28992617504E-01  0.13320566374E+00  0.19899159781E-01 0.  0.
         14    1    1    2    0    0  0.16547486947E-01  0.11339582349E-01 -0.10034311725E-01  0.22429731695E-01  0.00000000000E+00 0.  1.
     999901    1    3    3    0    0  0.11047117863E+00 -0.30664670081E-01  0.39026929229E-01  0.88829460457E+00  0.88000000000E+00 0. -1.
        -11    1    4    4    0    0 -0.11487671543E-01 -0.35358804459E-02 -0.52559230180E-03  0.12041860997E-01  0.51100000000E-03 0. -1.
         11    1    4    4    0    0 -0.11553099404E+00  0.22860968178E-01 -0.28467025202E-01  0.12116380274E+00  0.51100000000E-03 0.  1.
</event>
<event>
 8    1  0.1166736E+005  0.1043930E+01  0.7957747E-01            NaN
         13   -1    0    0    0    0  0.00000000000E+00  0.00000000000E+00  0.74505805969E-08  0.10566000000E+00  0.10566000000E+00 0. -1.
     999900   -1    0    0    0    0 -0.00000000000E+00 -0.00000000000E+00 -0.74505805969E-08  0.93827000000E+00  0.93827000000E+00 0.  1.
     999902    2    1    2    0    0  0.20054091355E-02 -0.22368180205E-01  0.89150138479E-02  0.10197673300E+01  0.10194810310E+01 0.  0.
     999903    2    3    3    0    0 -0.89222994430E-01  0.83730704434E-01 -0.31307051821E-01  0.12780465725E+00  0.19553140964E-01 0.  0.
         14    1    1    2    0    0 -0.20054091355E-02  0.22368180205E-01 -0.89150138479E-02  0.24162670039E-01  0.00000000000E+00 0.  1.
     999901    1    3    3    0    0  0.91228403566E-01 -0.10609888464E+00  0.40222065669E-01  0.89196267271E+00  0.88000000000E+00 0.  1.
        -11    1    4    4    0    0 -0.41719250680E-01  0.49681932366E-01 -0.10265418963E-01  0.65684322547E-01  0.51100000000E-03 0. -1.
         11    1    4    4    0    0 -0.47503743750E-01  0.34048772068E-01 -0.21041632858E-01  0.62120334706E-01  0.51100000000E-03 0.  1.
</event>
<event>
 8    1  0.1166736E+005  0.1043930E+01  0.7957747E-01            NaN
         13   -1    0    0    0    0  0.00000000000E+00  0.00000000000E+00  0.74505805969E-08  0.10566000000E+00  0.10566000000E+00 0.  1.
     999900   -1    0    0    0    0 -0.00000000000E+00 -0.00000000000E+00 -0.74505805969E-08  0.93827000000E+00  0.93827000000E+00 0. -1.
     999902    2    1    2    0    0  0.15765542635E-02  0.24594629417E-01  0.37129868192E-02  0.10190067660E+01  0.10187019297E+01 0.  0.
     999903    2    3    3    0    0  0.60123206061E-01 -0.10968744478E+00  0.87511913007E-02  0.12688302497E+00  0.19405752429E-01 0.  0.
         14    1    1    2    0    0 -0.15765542635E-02 -0.24594629417E-01 -0.37129868192E-02  0.24923233952E-01  0.00000000000E+00 0.  1.
     999901    1    3    3    0    0 -0.58546651797E-01  0.13428207420E+00 -0.50382044814E-02  0.89212374108E+00  0.88000000000E+00 0. -1.
        -11    1    4    4    0    0  0.54150286876E-02 -0.24723874172E-01  0.46961609976E-02  0.25746990870E-01  0.51100000000E-03 0.  1.
         11    1    4    4    0    0  0.54708177373E-01 -0.84963570608E-01  0.40550303031E-02  0.10113603410E+00  0.51100000000E-03 0. -1.
</event>
<event>
 8    1  0.1166736E+005  0.1043930E+01  0.7957747E-01            NaN
         13   -1    0    0    0    0  0.00000000000E+00  0.00000000000E+00  0.74505805969E-08  0.10566000000E+00  0.10566000000E+00 0.  1.
     999900   -1    0    0    0    0 -0.00000000000E+00 -0.00000000000E+00 -0.74505805969E-08  0.93827000000E+00  0.93827000000E+00 0. -1.
     999902    2    1    2    0    0  0.82992139525E-02  0.21588570776E-01 -0.59220864136E-02  0.10200550247E+01  0.10197755826E+01 0.  0.
     999903    2    3    3    0    0 -0.47957703409E-01  0.11710179287E+00 -0.34166352635E-01  0.13265130879E+00  0.20402422989E-01 0.  0.
         14    1    1    2    0    0 -0.82992139525E-02 -0.21588570776E-01  0.59220864136E-02  0.23874975348E-01  0.00000000000E+00 0.  1.
     999901    1    3    3    0    0  0.56256917361E-01 -0.95513222089E-01  0.28244266221E-01  0.88740371586E+00  0.88000000000E+00 0.  1.
        -11    1    4    4    0    0 -0.29013206326E-01  0.56964309381E-01 -0.26228810915E-01  0.69100725955E-01  0.51100000000E-03 0. -1.
         11    1    4    4    0    0 -0.18944497083E-01  0.60137483484E-01 -0.79375417202E-02  0.63550582839E-01  0.51100000000E-03 0.  1.
</event>
<event>
 8    1  0.1166736E+005  0.1043930E+01  0.7957747E-01            NaN
         13   -1    0    0    0    0  0.00000000000E+00  0.00000000000E+00  0.74505805969E-08  0.10566000000E+00  0.10566000000E+00 0.  1.
     999900   -1    0    0    0    0 -0.00000000000E+00 -0.00000000000E+00 -0.74505805969E-08  0.93827000000E+00  0.93827000000E+00 0.  1.
     999902    2    1    2    0    0 -0.14457214016E-01 -0.15457425670E-01  0.10958594446E-01  0.10200965395E+01  0.10198180799E+01 0.  0.
     999903    2    3    3    0    0  0.11972505005E+00  0.22641935746E-01 -0.33853654223E-01  0.12798411447E+00  0.19675334521E-01 0.  0.
         14    1    1    2    0    0  0.14457214016E-01  0.15457425670E-01 -0.10958594446E-01  0.23833460464E-01  0.00000000000E+00 0. -1.
     999901    1    3    3    0    0 -0.13418226406E+00 -0.38099361416E-01  0.44812248668E-01  0.89211242507E+00  0.88000000000E+00 0. -1.
        -11    1    4    4    0    0  0.98058901205E-01  0.26068097177E-01 -0.28671478301E-01  0.10543912265E+00  0.51100000000E-03 0.  1.
         11    1    4    4    0    0  0.21666148843E-01 -0.34261614307E-02 -0.51821759213E-02  0.22544991819E-01  0.51100000000E-03 0. -1.
</event>
<event>
 8    1  0.1166736E+005  0.1043930E+01  0.7957747E-01            NaN
         13   -1    0    0    0    0  0.00000000000E+00  0.00000000000E+00  0.74505805969E-08  0.10566000000E+00  0.10566000000E+00 0.  1.
     999900   -1    0    0    0    0 -0.00000000000E+00 -0.00000000000E+00 -0.74505805969E-08  0.93827000000E+00  0.93827000000E+00 0.  1.
     999902    2    1    2    0    0 -0.12156639017E-01  0.19974900807E-01 -0.57037524178E-02  0.10198610714E+01  0.10195770160E+01 0.  0.
     999903    2    3    3    0    0 -0.84551750869E-02  0.49370168758E-02 -0.12935538585E+00  0.13108125316E+00  0.18804652605E-01 0.  0.
         14    1    1    2    0    0  0.12156639017E-01 -0.19974900807E-01  0.57037524178E-02  0.24068928644E-01  0.00000000000E+00 0.  1.
     999901    1    3    3    0    0 -0.37014639302E-02  0.15037883931E-01  0.12365163343E+00  0.88877981820E+00  0.88000000000E+00 0. -1.
        -11    1    4    4    0    0 -0.62588857327E-02 -0.58888285806E-02 -0.33434316634E-01  0.34524869332E-01  0.51100000000E-03 0.  1.
         11    1    4    4    0    0 -0.21962893542E-02  0.10825845456E-01 -0.95921069215E-01  0.96556383824E-01  0.51100000000E-03 0. -1.
</event>
<event>
 8    1  0.1166736E+005  0.1043930E+01  0.7957747E-01            NaN
         13   -1    0    0    0    0  0.00000000000E+00  0.00000000000E+00  0.74505805969E-08  0.10566000000E+00  0.10566000000E+00 0. -1.
     999900   -1    0    0    0    0 -0.00000000000E+00 -0.00000000000E+00 -0.74505805969E-08  0.93827000000E+00  0.93827000000E+00 0.  1.
     999902    2    1    2    0    0  0.14210309495E-02 -0.23176344643E-01 -0.10679039406E-01  0.10183721409E+01  0.10180513804E+01 0.  0.
     999903    2    3    3    0    0 -0.30249931926E-02 -0.54066484797E-01 -0.11875359597E+00  0.13121145777E+00  0.13479418856E-01 0.  0.
         14    1    1    2    0    0 -0.14210309495E-02  0.23176344643E-01  0.10679039406E-01  0.25557859116E-01  0.00000000000E+00 0.  1.
     999901    1    3    3    0    0  0.44460241420E-02  0.30890140154E-01  0.10807455656E+00  0.88716068312E+00  0.88000000000E+00 0. -1.
        -11    1    4    4    0    0 -0.10253257698E-02 -0.26206362189E-01 -0.41855546960E-01  0.49396079242E-01  0.51100000000E-03 0. -1.
         11    1    4    4    0    0 -0.19996674227E-02 -0.27860122608E-01 -0.76898049007E-01  0.81815378527E-01  0.51100000000E-03 0.  1.
</event>
<event>
 8    1  0.1166736E+005  0.1043930E+01  0.7957747E-01            NaN
         13   -1    0    0    0    0  0.00000000000E+00  0.00000000000E+00  0.74505805969E-08  0.10566000000E+00  0.10566000000E+00 0. -1.
     999900   -1    0    0    0    0 -0.00000000000E+00 -0.00000000000E+00 -0.74505805969E-08  0.93827000000E+00  0.93827000000E+00 0. -1.
     999902    2    1    2    0    0  0.58939599586E-02 -0.63923102862E-02  0.25404484755E-01  0.10170787758E+01  0.10167242733E+01 0.  0.
     999903    2    3    3    0    0 -0.61839109250E-01  0.66898188229E-01  0.89325501483E-01  0.12913442946E+00  0.19930194068E-01 0.  0.
         14    1    1    2    0    0 -0.58939599586E-02  0.63923102862E-02 -0.25404484755E-01  0.26851224189E-01  0.00000000000E+00 0.  1.
     999901    1    3    3    0    0  0.67733069208E-01 -0.73290498515E-01 -0.63921016728E-01  0.88794434635E+00  0.88000000000E+00 0. -1.
        -11    1    4    4    0    0 -0.53466537843E-01  0.52984231952E-01  0.62811041886E-01  0.98038194640E-01  0.51100000000E-03 0.  1.
         11    1    4    4    0    0 -0.83725714063E-02  0.13913956277E-01  0.26514459597E-01  0.31096234819E-01  0.51100000000E-03 0. -1.
</event>
<event>
 8    1  0.1166736E+005  0.1043930E+01  0.7957747E-01            NaN
         13   -1    0    0    0    0  0.00000000000E+00  0.00000000000E+00  0.74505805969E-08  0.10566000000E+00  0.10566000000E+00 0. -1.
     999900   -1    0    0    0    0 -0.00000000000E+00 -0.00000000000E+00 -0.74505805969E-08  0.93827000000E+00  0.93827000000E+00 0. -1.
     999902    2    1    2    0    0  0.14777099127E-01 -0.82406337305E-02  0.16331891367E-01  0.10204140187E+01  0.10201430135E+01 0.  0.
     999903    2    3    3    0    0  0.12455204239E-01  0.71066458694E-01 -0.10446380530E+00  0.12862558722E+00  0.20646583444E-01 0.  0.
         14    1    1    2    0    0 -0.14777099127E-01  0.82406337305E-02 -0.16331891367E-01  0.23515981343E-01  0.00000000000E+00 0.  1.
     999901    1    3    3    0    0  0.23218948881E-02 -0.79307092425E-01  0.12079569666E+00  0.89178843143E+00  0.88000000000E+00 0.  1.
        -11    1    4    4    0    0 -0.22700614417E-02  0.19404014096E-01 -0.41404102010E-01  0.45784601410E-01  0.51100000000E-03 0. -1.
         11    1    4    4    0    0  0.14725265680E-01  0.51662444598E-01 -0.63059703286E-01  0.82840985814E-01  0.51100000000E-03 0.  1.
</event>
<event>
 8    1  0.1166736E+005  0.1043930E+01  0.7957747E-01            NaN
         13   -1    0    0    0    0  0.00000000000E+00  0.00000000000E+00  0.74505805969E-08  0.10566000000E+00  0.10566000000E+00 0.  1.
     999900   -1    0    0    0    0 -0.00000000000E+00 -0.00000000000E+00 -0.74505805969E-08  0.93827000000E+00  0.93827000000E+00 0. -1.
     999902    2    1    2    0    0 -0.23879308740E-01  0.42382080114E-02  0.77860943299E-03  0.10196650041E+01  0.10193762458E+01 0.  0.
     999903    2    3    3    0    0 -0.13153369015E+00  0.11678298389E-02 -0.18962118052E-02  0.13309518298E+00  0.20205361766E-01 0.  0.
         14    1    1    2    0    0  0.23879308740E-01 -0.42382080114E-02 -0.77860943299E-03  0.24264995894E-01  0.00000000000E+00 0. -1.
     999901    1    3    3    0    0  0.10765438141E+00  0.30703781725E-02  0.26748212382E-02  0.88656982112E+00  0.88000000000E+00 0.  1.
        -11    1    4    4    0    0 -0.89620762487E-01  0.98892770303E-02 -0.37165055391E-02  0.90242741554E-01  0.51100000000E-03 0. -1.
         11    1    4    4    0    0 -0.41912927660E-01 -0.87214471915E-02  0.18202937339E-02  0.42852441429E-01  0.51100000000E-03 0.  1.
</event>
<event>
 8    1  0.1166736E+005  0.1043930E+01  0.7957747E-01            NaN
         13   -1    0    0    0    0  0.00000000000E+00  0.00000000000E+00  0.74505805969E-08  0.10566000000E+00  0.10566000000E+00 0. -1.
     999900   -1    0    0    0    0 -0.00000000000E+00 -0.00000000000E+00 -0.74505805969E-08  0.93827000000E+00  0.93827000000E+00 0.  1.
     999902    2    1    2    0    0  0.11639318799E-01 -0.20533747988E-01  0.24568004613E-03  0.10203255744E+01  0.10200525030E+01 0.  0.
     999903    2    3    3    0    0  0.12408338133E+00  0.37797006301E-01  0.32528824687E-02  0.13125010666E+00  0.19766386787E-01 0.  0.
         14    1    1    2    0    0 -0.11639318799E-01  0.20533747988E-01 -0.24568004613E-03  0.23604425586E-01  0.00000000000E+00 0.  1.
     999901    1    3    3    0    0 -0.11244406253E+00 -0.58330754289E-01 -0.30072024226E-02  0.88907546775E+00  0.88000000000E+00 0.  1.
        -11    1    4    4    0    0  0.58915577851E-01  0.14614613604E-01  0.10844821495E-01  0.61664442903E-01  0.51100000000E-03 0.  1.
         11    1    4    4    0    0  0.65167803479E-01  0.23182392697E-01 -0.75919390267E-02  0.69585663758E-01  0.51100000000E-03 0. -1.
</event>
<event>
 8    1  0.1166736E+005  0.1043930E+01  0.7957747E-01            NaN
         13   -1    0    0    0    0  0.00000000000E+00  0.00000000000E+00  0.74505805969E-08  0.10566000000E+00  0.10566000000E+00 0. -1.
     999900   -1    0    0    0    0 -0.00000000000E+00 -0.00000000000E+00 -0.74505805969E-08  0.93827000000E+00  0.93827000000E+00 0. -1.
     999902    2    1    2    0    0  0.11001503364E-02  0.16030160071E-01  0.12267659488E-01  0.10237143666E+01  0.10235147447E+01 0.  0.
     999903    2    3    3    0    0  0.11689030281E+00  0.62876088620E-01 -0.10896854940E-01  0.13459204932E+00  0.19481603707E-01 0.  0.
         14    1    1    2    0    0 -0.11001503364E-02 -0.16030160071E-01 -0.12267659488E-01  0.20215633356E-01  0.00000000000E+00 0.  1.
     999901    1    3    3    0    0 -0.11579015247E+00 -0.46845928548E-01  0.23164514428E-01  0.88912231732E+00  0.88000000000E+00 0.  1.
        -11    1    4    4    0    0  0.54246215334E-01  0.25656295304E-01 -0.14133097148E-01  0.61651463266E-01  0.51100000000E-03 0. -1.
         11    1    4    4    0    0  0.62644087472E-01  0.37219793315E-01  0.32362422081E-02  0.72940586057E-01  0.51100000000E-03 0.  1.
</event>
<event>
 8    1  0.1166736E+005  0.1043930E+01  0.7957747E-01            NaN
         13   -1    0    0    0    0  0.00000000000E+00  0.00000000000E+00  0.74505805969E-08  0.10566000000E+00  0.10566000000E+00 0. -1.
     999900   -1    0    0    0    0 -0.00000000000E+00 -0.00000000000E+00 -0.74505805969E-08  0.93827000000E+00  0.93827000000E+00 0. -1.
     999902    2    1    2    0    0  0.97155388728E-02 -0.10734078949E-01 -0.18288233063E-01  0.10206046572E+01  0.10203380787E+01 0.  0.
     999903    2    3    3    0    0 -0.62955890560E-01 -0.11222514647E+00  0.13548081645E-01  0.13122559048E+00  0.21878697983E-01 0.  0.
         14    1    1    2    0    0 -0.97155388728E-02  0.10734078949E-01  0.18288233063E-01  0.23325342763E-01  0.00000000000E+00 0. -1.
     999901    1    3    3    0    0  0.72671429433E-01  0.10149106752E+00 -0.31836314708E-01  0.88937906675E+00  0.88000000000E+00 0. -1.
        -11    1    4    4    0    0 -0.30558285835E-01 -0.50414641621E-01 -0.45450554208E-02  0.59130056424E-01  0.51100000000E-03 0. -1.
         11    1    4    4    0    0 -0.32397604725E-01 -0.61810504849E-01  0.18093137066E-01  0.72095534061E-01  0.51100000000E-03 0.  1.
</event>
<event>
 8    1  0.1166736E+005  0.1043930E+01  0.7957747E-01            NaN
         13   -1    0    0    0    0  0.00000000000E+00  0.00000000000E+00  0.74505805969E-08  0.10566000000E+00  0.10566000000E+00 0. -1.
     999900   -1    0    0    0    0 -0.00000000000E+00 -0.00000000000E+00 -0.74505805969E-08  0.93827000000E+00  0.93827000000E+00 0. -1.
     999902    2    1    2    0    0 -0.15034593415E-01 -0.13613852949E-01  0.11962394225E-01  0.10203827100E+01  0.10201109743E+01 0.  0.
     999903    2    3    3    0    0  0.38593729803E-01 -0.12207332000E+00 -0.22225791734E-01  0.13144610645E+00  0.19817205832E-01 0.  0.
         14    1    1    2    0    0  0.15034593415E-01  0.13613852949E-01 -0.11962394225E-01  0.23547290011E-01  0.00000000000E+00 0.  1.
     999901    1    3    3    0    0 -0.53628323218E-01  0.10845946705E+00  0.34188185959E-01  0.88893660353E+00  0.88000000000E+00 0.  1.
        -11    1    4    4    0    0  0.22226658362E-01 -0.75690548574E-01 -0.23263229968E-01  0.82246717107E-01  0.51100000000E-03 0.  1.
         11    1    4    4    0    0  0.16367071441E-01 -0.46382771429E-01  0.10374382334E-02  0.49199389347E-01  0.51100000000E-03 0. -1.
</event>
<event>
 8    1  0.1166736E+005  0.1043930E+01  0.7957747E-01            NaN
         13   -1    0    0    0    0  0.00000000000E+00  0.00000000000E+00  0.74505805969E-08  0.10566000000E+00  0.10566000000E+00 0.  1.
     999900   -1    0    0    0    0 -0.00000000000E+00 -0.00000000000E+00 -0.74505805969E-08  0.93827000000E+00  0.93827000000E+00 0. -1.
     999902    2    1    2    0    0 -0.16514453810E-01  0.15994772103E-01 -0.61091019824E-02  0.10201417456E+01  0.10198643538E+01 0.  0.
     999903    2    3    3    0    0 -0.53795925483E-01  0.11910243072E+00 -0.15539807814E-01  0.13328773531E+00  0.21088958127E-01 0.  0.
         14    1    1    2    0    0  0.16514453810E-01 -0.15994772103E-01  0.61091019824E-02  0.23788254377E-01  0.00000000000E+00 0. -1.
     999901    1    3    3    0    0  0.37281471673E-01 -0.10310765862E+00  0.94307058314E-02  0.88685401031E+00  0.88000000000E+00 0.  1.
        -11    1    4    4    0    0 -0.33050362804E-01  0.69133079436E-01 -0.19389743962E-01  0.79043864061E-01  0.51100000000E-03 0.  1.
         11    1    4    4    0    0 -0.20745562678E-01  0.49969351286E-01  0.38499361477E-02  0.54243871249E-01  0.51100000000E-03 0. -1.
</event>
<event>
 8    1  0.1166736E+005  0.1043930E+01  0.7957747E-01            NaN
         13   -1    0    0    0    0  0.00000000000E+00  0.00000000000E+00  0.74505805969E-08  0.10566000000E+00  0.10566000000E+00 0. -1.
     999900   -1    0    0    0    0 -0.00000000000E+00 -0.00000000000E+00 -0.74505805969E-08  0.93827000000E+00  0.93827000000E+00 0. -1.
     999902    2    1    2    0    0  0.21083670148E-01 -0.74143612791E-02  0.56713112701E-02  0.10208722969E+01  0.10206118699E+01 0.  0.
     999903    2    3    3    0    0 -0.68579092382E-01 -0.39229459272E-01  0.10188920499E+00  0.13052995011E+00  0.20362106843E-01 0.  0.
         14    1    1    2    0    0 -0.21083670148E-01  0.74143612791E-02 -0.56713112701E-02  0.23057703087E-01  0.00000000000E+00 0.  1.
     999901    1    3    3    0    0  0.89662762530E-01  0.31815097993E-01 -0.96217893719E-01  0.89034234681E+00  0.88000000000E+00 0. -1.
        -11    1    4    4    0    0 -0.34932703771E-01 -0.11773755143E-01  0.58440285116E-01  0.69097345451E-01  0.51100000000E-03 0.  1.
         11    1    4    4    0    0 -0.33646388610E-01 -0.27455704129E-01  0.43448919873E-01  0.61432604656E-01  0.51100000000E-03 0. -1.
</event>
<event>
 8    1  0.1166736E+005  0.1043930E+01  0.7957747E-01            NaN
         13   -1    0    0    0    0  0.00000000000E+00  0.00000000000E+00  0.74505805969E-08  0.10566000000E+00  0.10566000000E+00 0. -1.
     999900   -1    0    0    0    0 -0.00000000000E+00 -0.00000000000E+00 -0.74505805969E-08  0.93827000000E+00  0.93827000000E+00 0. -1.
     999902    2    1    2    0    0  0.40197904032E-02  0.20793338179E-01  0.10414099264E-01  0.10203296803E+01  0.10200567050E+01 0.  0.
     999903    2    3    3    0    0  0.34425980274E-01 -0.64074790777E-01 -0.10438442072E+00  0.12830622998E+00  0.16602844074E-01 0.  0.
         14    1    1    2    0    0 -0.40197904032E-02 -0.20793338179E-01 -0.10414099264E-01  0.23600319723E-01  0.00000000000E+00 0.  1.
     999901    1    3    3    0    0 -0.30406189870E-01  0.84868128956E-01  0.11479851998E+00  0.89202345030E+00  0.88000000000E+00 0.  1.
        -11    1    4    4    0    0  0.11230647376E-01 -0.38282114211E-01 -0.57210995331E-01  0.69749600836E-01  0.51100000000E-03 0.  1.
         11    1    4    4    0    0  0.23195332897E-01 -0.25792676565E-01 -0.47173425388E-01  0.58556629142E-01  0.51100000000E-03 0. -1.
</event>
<event>
 8    1  0.1166736E+005  0.1043930E+01  0.7957747E-01            NaN
         13   -1    0    0    0    0  0.00000000000E+00  0.00000000000E+00  0.74505805969E-08  0.10566000000E+00  0.10566000000E+00 0. -1.
     999900   -1    0    0    0    0 -0.00000000000E+00 -0.00000000000E+00 -0.74505805969E-08  0.93827000000E+00  0.93827000000E+00 0. -1.
     999902    2    1    2    0    0 -0.74135291886E-02 -0.18439413404E-01  0.95818181651E-02  0.10218668266E+01  0.10216286153E+01 0.  0.
     999903    2    3    3    0    0  0.77978848164E-01  0.58677276725E-01  0.85317787356E-01  0.13115094650E+00  0.19942977817E-01 0.  0.
         14    1    1    2    0    0  0.74135291886E-02  0.18439413404E-01 -0.95818181651E-02  0.22063173413E-01  0.00000000000E+00 0.  1.
     999901    1    3    3    0    0 -0.85392377353E-01 -0.77116690129E-01 -0.75735969191E-01  0.89071588009E+00  0.88000000000E+00 0.  1.
        -11    1    4    4    0    0  0.59581249636E-01  0.43504564133E-01  0.74868248672E-01  0.10510988626E+00  0.51100000000E-03 0.  1.
         11    1    4    4    0    0  0.18397598529E-01  0.15172712592E-01  0.10449538683E-01  0.26041060245E-01  0.51100000000E-03 0. -1.
</event>
<event>
 8    1  0.1166736E+005  0.1043930E+01  0.7957747E-01            NaN
         13   -1    0    0    0    0  0.00000000000E+00  0.00000000000E+00  0.74505805969E-08  0.10566000000E+00  0.10566000000E+00 0. -1.
     999900   -1    0    0    0    0 -0.00000000000E+00 -0.00000000000E+00 -0.74505805969E-08  0.93827000000E+00  0.93827000000E+00 0.  1.
     999902    2    1    2    0    0  0.20208504983E-01 -0.30381189353E-02 -0.12379653695E-01  0.10200371210E+01  0.10197572547E+01 0.  0.
     999903    2    3    3    0    0  0.12897848543E+00  0.21758352016E-01 -0.80938083462E-02  0.13298349125E+00  0.22588130171E-01 0.  0.
         14    1    1    2    0    0 -0.20208504983E-01  0.30381189353E-02  0.12379653695E-01  0.23892878980E-01  0.00000000000E+00 0. -1.
     999901    1    3    3    0    0 -0.10876998045E+00 -0.24796470951E-01 -0.42858453491E-02  0.88705362977E+00  0.88000000000E+00 0. -1.
        -11    1    4    4    0    0  0.35552310728E-01  0.18646795088E-02  0.69707576497E-02  0.36280799481E-01  0.51100000000E-03 0. -1.
         11    1    4    4    0    0  0.93426174705E-01  0.19893672507E-01 -0.15064565996E-01  0.96702691769E-01  0.51100000000E-03 0.  1.
</event>
<event>
 8    1  0.1166736E+005  0.1043930E+01  0.7957747E-01            NaN
         13   -1    0    0    0    0  0.00000000000E+00  0.00000000000E+00  0.74505805969E-08  0.10566000000E+00  0.10566000000E+00 0. -1.
     999900   -1    0    0    0    0 -0.00000000000E+00 -0.00000000000E+00 -0.74505805969E-08  0.93827000000E+00  0.93827000000E+00 0.  1.
     999902    2    1    2    0    0  0.21362657407E-02 -0.12043229816E-02 -0.25232838811E-01  0.10185782707E+01  0.10182627280E+01 0.  0.
     999903    2    3    3    0    0 -0.35001748764E-01  0.27060460561E-01 -0.12269835922E+00  0.13196806445E+00  0.20082124852E-01 0.  0.
         14    1    1    2    0    0 -0.21362657407E-02  0.12043229816E-02  0.25232838811E-01  0.25351729323E-01  0.00000000000E+00 0. -1.
     999901    1    3    3    0    0  0.37138014505E-01 -0.28264783543E-01  0.97465520407E-01  0.88661020622E+00  0.88000000000E+00 0. -1.
        -11    1    4    4    0    0 -0.24470796861E-01  0.14282071693E-01 -0.50640189569E-01  0.58030055932E-01  0.51100000000E-03 0.  1.
         11    1    4    4    0    0 -0.10530951903E-01  0.12778388868E-01 -0.72058169650E-01  0.73938008523E-01  0.51100000000E-03 0. -1.
</event>
<event>
 8    1  0.1166736E+005  0.1043930E+01  0.7957747E-01            NaN
         13   -1    0    0    0    0  0.00000000000E+00  0.00000000000E+00  0.74505805969E-08  0.10566000000E+00  0.10566000000E+00 0.  1.
     999900   -1    0    0    0    0 -0.00000000000E+00 -0.00000000000E+00 -0.74505805969E-08  0.93827000000E+00  0.93827000000E+00 0. -1.
     999902    2    1    2    0    0  0.43294911471E-02  0.23524831580E-01  0.70841338194E-02  0.10189831135E+01  0.10186776911E+01 0.  0.
     999903    2    3    3    0    0  0.80992695409E-01 -0.18167061490E-01 -0.96131613576E-01  0.12866353528E+00  0.20570837361E-01 0.  0.
         14    1    1    2    0    0 -0.43294911471E-02 -0.23524831580E-01 -0.70841338194E-02  0.24946886507E-01  0.00000000000E+00 0.  1.
     999901    1    3    3    0    0 -0.76663204262E-01  0.41691893069E-01  0.10321574740E+00  0.89031957821E+00  0.88000000000E+00 0.  1.
        -11    1    4    4    0    0  0.61356925568E-01 -0.21121318224E-01 -0.65873590767E-01  0.92468229572E-01  0.51100000000E-03 0.  1.
         11    1    4    4    0    0  0.19635769841E-01  0.29542567346E-02 -0.30258022809E-01  0.36195305709E-01  0.51100000000E-03 0. -1.
</event>
<event>
 8    1  0.1166736E+005  0.1043930E+01  0.7957747E-01            NaN
         13   -1    0    0    0    0  0.00000000000E+00  0.00000000000E+00  0.74505805969E-08  0.10566000000E+00  0.10566000000E+00 0. -1.
     999900   -1    0    0    0    0 -0.00000000000E+00 -0.00000000000E+00 -0.74505805969E-08  0.93827000000E+00  0.93827000000E+00 0. -1.
     999902    2    1    2    0    0 -0.14685095434E-01  0.13971957281E-01 -0.12066388675E-01  0.10203404821E+01  0.10200677596E+01 0.  0.
     999903    2    3    3    0    0 -0.22147347845E-01  0.40832333460E-01 -0.12305096484E+00  0.13293147768E+00  0.19273124753E-01 0.  0.
         14    1    1    2    0    0  0.14685095434E-01 -0.13971957281E-01  0.12066388675E-01  0.23589517880E-01  0.00000000000E+00 0. -1.
     999901    1    3    3    0    0  0.74622524110E-02 -0.26860376179E-01  0.11098457616E+00  0.88740900444E+00  0.88000000000E+00 0.  1.
        -11    1    4    4    0    0 -0.10729130420E-01  0.13599840872E-01 -0.71010104499E-01  0.73094226676E-01  0.51100000000E-03 0. -1.
         11    1    4    4    0    0 -0.11418217424E-01  0.27232492588E-01 -0.52040860338E-01  0.59837251002E-01  0.51100000000E-03 0.  1.
</event>
<event>
 8    1  0.1166736E+005  0.1043930E+01  0.7957747E-01            NaN
         13   -1    0    0    0    0  0.00000000000E+00  0.00000000000E+00  0.74505805969E-08  0.10566000000E+00  0.10566000000E+00 0. -1.
     999900   -1    0    0    0    0 -0.00000000000E+00 -0.00000000000E+00 -0.74505805969E-08  0.93827000000E+00  0.93827000000E+00 0.  1.
     999902    2    1    2    0    0  0.22023871416E-01  0.55104520035E-02  0.27979885395E-02  0.10210554567E+01  0.10207991971E+01 0.  0.
     999903    2    3    3    0    0 -0.10504230116E+00  0.71193096221E-01 -0.11194442535E-01  0.12939643545E+00  0.22710789975E-01 0.  0.
         14    1    1    2    0    0 -0.22023871416E-01 -0.55104520035E-02 -0.27979885395E-02  0.22874543346E-01  0.00000000000E+00 0.  1.
     999901    1    3    3    0    0  0.12706617258E+00 -0.65682644218E-01  0.13992431074E-01  0.89165902120E+00  0.88000000000E+00 0.  1.
        -11    1    4    4    0    0 -0.32100464019E-01  0.20182747548E-01 -0.13782624638E-01  0.40348543366E-01  0.51100000000E-03 0.  1.
         11    1    4    4    0    0 -0.72941837140E-01  0.51010348673E-01  0.25881821036E-02  0.89047892085E-01  0.51100000000E-03 0. -1.
</event>
<event>
 8    1  0.1166736E+005  0.1043930E+01  0.7957747E-01            NaN
         13   -1    0    0    0    0  0.00000000000E+00  0.00000000000E+00  0.74505805969E-08  0.10566000000E+00  0.10566000000E+00 0. -1.
     999900   -1    0    0    0    0 -0.00000000000E+00 -0.00000000000E+00 -0.74505805969E-08  0.93827000000E+00  0.93827000000E+00 0. -1.
     999902    2    1    2    0    0 -0.50583856642E-02 -0.18078696508E-01  0.15100087896E-01  0.10198376944E+01  0.10195530804E+01 0.  0.
     999903    2    3    3    0    0 -0.33204009078E-01 -0.80254306003E-01 -0.95005771634E-01  0.13035397742E+00  0.20562172416E-01 0.  0.
         14    1    1    2    0    0  0.50583856642E-02  0.18078696508E-01 -0.15100087896E-01  0.24092305565E-01  0.00000000000E+00 0.  1.
     999901    1    3    3    0    0  0.28145623414E-01  0.62175609495E-01  0.11010585953E+00  0.88948371702E+00  0.88000000000E+00 0.  1.
        -11    1    4    4    0    0 -0.52534948221E-02 -0.39322923220E-01 -0.43227076217E-01  0.58674804965E-01  0.51100000000E-03 0. -1.
         11    1    4    4    0    0 -0.27950514256E-01 -0.40931382783E-01 -0.51778695416E-01  0.71679172454E-01  0.51100000000E-03 0.  1.
</event>
<event>
 8    1  0.1166736E+005  0.1043930E+01  0.7957747E-01            NaN
         13   -1    0    0    0    0  0.00000000000E+00  0.00000000000E+00  0.74505805969E-08  0.10566000000E+00  0.10566000000E+00 0. -1.
     999900   -1    0    0    0    0 -0.00000000000E+00 -0.00000000000E+00 -0.74505805969E-08  0.93827000000E+00  0.93827000000E+00 0. -1.
     999902    2    1    2    0    0 -0.12999060845E-01  0.13248041587E-01  0.15100298051E-01  0.10200029193E+01  0.10197222417E+01 0.  0.
     999903    2    3    3    0    0 -0.81680460166E-01  0.98622154228E-01  0.30252311417E-01  0.13307820029E+00  0.19914270453E-01 0.  0.
         14    1    1    2    0    0  0.12999060845E-01 -0.13248041587E-01 -0.15100298051E-01  0.23927080682E-01  0.00000000000E+00 0.  1.
     999901    1    3    3    0    0  0.68681399321E-01 -0.85374112641E-01 -0.15152013367E-01  0.88692471903E+00  0.88000000000E+00 0. -1.
        -11    1    4    4    0    0 -0.11910536002E-01  0.27445705604E-01  0.71480269734E-02  0.30764964401E-01  0.51100000000E-03 0.  1.
         11    1    4    4    0    0 -0.69769924164E-01  0.71176448624E-01  0.23104284444E-01  0.10231323588E+00  0.51100000000E-03 0. -1.
</event>
<event>
 8    1  0.1166736E+005  0.1043930E+01  0.7957747E-01            NaN
         13   -1    0    0    0    0  0.00000000000E+00  0.00000000000E+00  0.74505805969E-08  0.10566000000E+00  0.10566000000E+00 0. -1.
     999900   -1    0    0    0    0 -0.00000000000E+00 -0.00000000000E+00 -0.74505805969E-08  0.93827000000E+00  0.93827000000E+00 0. -1.
     999902    2    1    2    0    0 -0.21679318809E-01 -0.10899232481E-01 -0.14732391298E-02  0.10196204018E+01  0.10193305681E+01 0.  0.
     999903    2    3    3    0    0 -0.22134620892E-01  0.51806642702E-01  0.11512580743E+00  0.12971727685E+00  0.19968743200E-01 0.  0.
         14    1    1    2    0    0  0.21679318809E-01  0.10899232481E-01  0.14732391298E-02  0.24309598233E-01  0.00000000000E+00 0.  1.
     999901    1    3    3    0    0  0.45530208221E-03 -0.62705875183E-01 -0.11659904656E+00  0.88990312492E+00  0.88000000000E+00 0. -1.
        -11    1    4    4    0    0 -0.13042024860E-01  0.46376130770E-01  0.10229395852E+00  0.11307145966E+00  0.51100000000E-03 0. -1.
         11    1    4    4    0    0 -0.90925960314E-02  0.54305119327E-02  0.12831848913E-01  0.16645817191E-01  0.51100000000E-03 0.  1.
</event>
<event>
 8    1  0.1166736E+005  0.1043930E+01  0.7957747E-01            NaN
         13   -1    0    0    0    0  0.00000000000E+00  0.00000000000E+00  0.74505805969E-08  0.10566000000E+00  0.10566000000E+00 0.  1.
     999900   -1    0    0    0    0 -0.00000000000E+00 -0.00000000000E+00 -0.74505805969E-08  0.93827000000E+00  0.93827000000E+00 0.  1.
     999902    2    1    2    0    0  0.26678709755E-02  0.22292721412E-01  0.72318979581E-02  0.10203422211E+01  0.10200695393E+01 0.  0.
     999903    2    3    3    0    0 -0.59386313792E-01 -0.10768599339E+00  0.30602464764E-01  0.12832687848E+00  0.20205678698E-01 0.  0.
         14    1    1    2    0    0 -0.26678709755E-02 -0.22292721412E-01 -0.72318979581E-02  0.23587778860E-01  0.00000000000E+00 0.  1.
     999901    1    3    3    0    0  0.62054184768E-01  0.12997871480E+00 -0.23370566806E-01  0.89201534266E+00  0.88000000000E+00 0. -1.
        -11    1    4    4    0    0 -0.14026578375E-01 -0.28788357265E-01 -0.84253870033E-03  0.32038810954E-01  0.51100000000E-03 0. -1.
         11    1    4    4    0    0 -0.45359735417E-01 -0.78897636129E-01  0.31445003464E-01  0.96288067525E-01  0.51100000000E-03 0.  1.
</event>
<event>
 8    1  0.1166736E+005  0.1043930E+01  0.7957747E-01            NaN
         13   -1    0    0    0    0  0.00000000000E+00  0.00000000000E+00  0.74505805969E-08  0.10566000000E+00  0.10566000000E+00 0.  1.
     999900   -1    0    0    0    0 -0.00000000000E+00 -0.00000000000E+00 -0.74505805969E-08  0.93827000000E+00  0.93827000000E+00 0. -1.
     999902    2    1    2    0    0  0.10574279562E-01  0.17804070748E-01  0.10720477640E-01  0.10206120034E+01  0.10203455947E+01 0.  0.
     999903    2    3    3    0    0 -0.59385684052E-01  0.31938035567E-01 -0.10882071049E+00  0.12966629176E+00  0.20608313899E-01 0.  0.
         14    1    1    2    0    0 -0.10574279562E-01 -0.17804070748E-01 -0.10720477640E-01  0.23317996575E-01  0.00000000000E+00 0. -1.
     999901    1    3    3    0    0  0.69959963614E-01 -0.14133964819E-01  0.11954118813E+00  0.89094571166E+00  0.88000000000E+00 0.  1.
        -11    1    4    4    0    0 -0.34192135268E-01  0.80743119734E-02 -0.63633971440E-01  0.72690027309E-01  0.51100000000E-03 0.  1.
         11    1    4    4    0    0 -0.25193548785E-01  0.23863723594E-01 -0.45186739050E-01  0.56976264453E-01  0.51100000000E-03 0. -1.
</event>
<event>
 8    1  0.1166736E+005  0.1043930E+01  0.7957747E-01            NaN
         13   -1    0    0    0    0  0.00000000000E+00  0.00000000000E+00  0.74505805969E-08  0.10566000000E+00  0.10566000000E+00 0. -1.
     999900   -1    0    0    0    0 -0.00000000000E+00 -0.00000000000E+00 -0.74505805969E-08  0.93827000000E+00  0.93827000000E+00 0. -1.
     999902    2    1    2    0    0  0.11528835790E-01 -0.23839458992E-02 -0.19965565817E-01  0.10207519701E+01  0.10204887865E+01 0.  0.
     999903    2    3    3    0    0 -0.10650059203E+00 -0.71689193991E-01  0.18429692939E-02  0.12990418541E+00  0.19748017955E-01 0.  0.
         14    1    1    2    0    0 -0.11528835790E-01  0.23839458992E-02  0.19965565817E-01  0.23178029923E-01  0.00000000000E+00 0. -1.
     999901    1    3    3    0    0  0.11802942782E+00  0.69305248092E-01 -0.21808535111E-01  0.89084778467E+00  0.88000000000E+00 0. -1.
        -11    1    4    4    0    0 -0.84785909475E-01 -0.58109866304E-01 -0.64162034529E-02  0.10298949362E+00  0.51100000000E-03 0. -1.
         11    1    4    4    0    0 -0.21714682554E-01 -0.13579327687E-01  0.82591727468E-02  0.26914691794E-01  0.51100000000E-03 0.  1.
</event>
<event>
 8    1  0.1166736E+005  0.1043930E+01  0.7957747E-01            NaN
         13   -1    0    0    0    0  0.00000000000E+00  0.00000000000E+00  0.74505805969E-08  0.10566000000E+00  0.10566000000E+00 0. -1.
     999900   -1    0    0    0    0 -0.00000000000E+00 -0.00000000000E+00 -0.74505805969E-08  0.93827000000E+00  0.93827000000E+00 0. -1.
     999902    2    1    2    0    0 -0.10965119862E-01  0.10411259887E-01  0.18748795935E-01  0.10198437895E+01  0.10195593212E+01 0.  0.
     999903    2    3    3    0    0 -0.12368444939E+00 -0.38859634279E-01 -0.25286221596E-02  0.13103222525E+00  0.18845050509E-01 0.  0.
         14    1    1    2    0    0  0.10965119862E-01 -0.10411259887E-01 -0.18748795935E-01  0.24086210475E-01  0.00000000000E+00 0.  1.
     999901    1    3    3    0    0  0.11271932953E+00  0.49270894165E-01  0.21277418095E-01  0.88881156427E+00  0.88000000000E+00 0. -1.
        -11    1    4    4    0    0 -0.81365502296E-01 -0.21958738189E-01 -0.99379111626E-02  0.84861972320E-01  0.51100000000E-03 0. -1.
         11    1    4    4    0    0 -0.42318947091E-01 -0.16900896089E-01  0.74092890030E-02  0.46170252935E-01  0.51100000000E-03 0.  1.
</event>
<event>
 8    1  0.1166736E+005  0.1043930E+01  0.7957747E-01            NaN
         13   -1    0    0    0    0  0.00000000000E+00  0.00000000000E+00  0.74505805969E-08  0.10566000000E+00  0.10566000000E+00 0.  1.
     999900   -1    0    0    0    0 -0.00000000000E+00 -0.00000000000E+00 -0.74505805969E-08  0.93827000000E+00  0.93827000000E+00 0. -1.
     999902    2    1    2    0    0 -0.23177315893E-02  0.18868039390E-01  0.15045532272E-01  0.10196865920E+01  0.10193983535E+01 0.  0.
     999903    2    3    3    0    0  0.12004385711E+00 -0.27805076878E-01 -0.31977348883E-01  0.12875343540E+00  0.19267754281E-01 0.  0.
         14    1    1    2    0    0  0.23177315893E-02 -0.18868039390E-01 -0.15045532272E-01  0.24243408001E-01  0.00000000000E+00 0.  1.
     999901    1    3    3    0    0 -0.12236158870E+00  0.46673116268E-01  0.47022881155E-01  0.89093315660E+00  0.88000000000E+00 0. -1.
        -11    1    4    4    0    0  0.15779874252E-01 -0.62790455369E-02  0.17348083701E-02  0.17079271804E-01  0.51100000000E-03 0.  1.
         11    1    4    4    0    0  0.10426398286E+00 -0.21526031341E-01 -0.33712157253E-01  0.11167416360E+00  0.51100000000E-03 0. -1.
</event>
<event>
 8    1  0.1166736E+005  0.1043930E+01  0.7957747E-01            NaN
         13   -1    0    0    0    0  0.00000000000E+00  0.00000000000E+00  0.74505805969E-08  0.10566000000E+00  0.10566000000E+00 0. -1.
     999900   -1    0    0    0    0 -0.00000000000E+00 -0.00000000000E+00 -0.74505805969E-08  0.93827000000E+00  0.93827000000E+00 0.  1.
     999902    2    1    2    0    0 -0.20267009986E-01 -0.10999124577E-02 -0.68792146599E-02  0.10224990622E+01  0.10222744480E+01 0.  0.
     999903    2    3    3    0    0  0.79612771757E-01  0.64442644186E-01  0.78179531190E-01  0.13036298076E+00  0.19784333192E-01 0.  0.
         14    1    1    2    0    0  0.20267009986E-01  0.10999124577E-02  0.68792146599E-02  0.21430937813E-01  0.00000000000E+00 0. -1.
     999901    1    3    3    0    0 -0.99879781744E-01 -0.65542556644E-01 -0.85058745850E-01  0.89213608142E+00  0.88000000000E+00 0.  1.
        -11    1    4    4    0    0  0.41318066198E-01  0.24475276911E-01  0.45070650781E-01  0.65862329575E-01  0.51100000000E-03 0.  1.
         11    1    4    4    0    0  0.38294705559E-01  0.39967367276E-01  0.33108880409E-01  0.64500651188E-01  0.51100000000E-03 0. -1.
</event>
<event>
 8    1  0.1166736E+005  0.1043930E+01  0.7957747E-01            NaN
         13   -1    0    0    0    0  0.00000000000E+00  0.00000000000E+00  0.74505805969E-08  0.10566000000E+00  0.10566000000E+00 0. -1.
     999900   -1    0    0    0    0 -0.00000000000E+00 -0.00000000000E+00 -0.74505805969E-08  0.93827000000E+00  0.93827000000E+00 0. -1.
     999902    2    1    2    0    0 -0.21212294045E-01  0.10164397976E-01  0.46745663447E-02  0.10199481741E+01  0.10196661953E+01 0.  0.
     999903    2    3    3    0    0 -0.15794768471E-01  0.59098722389E-01 -0.11372368371E+00  0.13065516087E+00  0.19888718564E-01 0.  0.
         14    1    1    2    0    0  0.21212294045E-01 -0.10164397976E-01 -0.46745663447E-02  0.23981825939E-01  0.00000000000E+00 0. -1.
     999901    1    3    3    0    0 -0.54175255742E-02 -0.48934324412E-01  0.11839825006E+00  0.88929301319E+00  0.88000000000E+00 0.  1.
        -11    1    4    4    0    0 -0.38954718230E-02  0.30050605553E-01 -0.37474549035E-01  0.48195607073E-01  0.51100000000E-03 0. -1.
         11    1    4    4    0    0 -0.11899296648E-01  0.29048116836E-01 -0.76249134679E-01  0.82459553799E-01  0.51100000000E-03 0.  1.
</event>
<event>
 8    1  0.1166736E+005  0.1043930E+01  0.7957747E-01            NaN
         13   -1    0    0    0    0  0.00000000000E+00  0.00000000000E+00  0.74505805969E-08  0.10566000000E+00  0.10566000000E+00 0. -1.
     999900   -1    0    0    0    0 -0.00000000000E+00 -0.00000000000E+00 -0.74505805969E-08  0.93827000000E+00  0.93827000000E+00 0. -1.
     999902    2    1    2    0    0  0.16869109839E-01  0.17043911162E-01  0.50846842832E-03  0.10199441643E+01  0.10196620901E+01 0.  0.
     999903    2    3    3    0    0 -0.27421857361E-01  0.79904597071E-02 -0.12522799558E+00  0.12985803748E+00  0.19111601533E-01 0.  0.
         14    1    1    2    0    0 -0.16869109839E-01 -0.17043911162E-01 -0.50846842832E-03  0.23985835708E-01  0.00000000000E+00 0.  1.
     999901    1    3    3    0    0  0.44290967200E-01  0.90534514551E-02  0.12573646401E+00  0.89008612681E+00  0.88000000000E+00 0.  1.
        -11    1    4    4    0    0 -0.94465450935E-02 -0.52999973185E-02 -0.58111948419E-01  0.59115030710E-01  0.51100000000E-03 0.  1.
         11    1    4    4    0    0 -0.17975312268E-01  0.13290457026E-01 -0.67116047165E-01  0.70743006772E-01  0.51100000000E-03 0. -1.
</event>
<event>
 8    1  0.1166736E+005  0.1043930E+01  0.7957747E-01            NaN
         13   -1    0    0    0    0  0.00000000000E+00  0.00000000000E+00  0.74505805969E-08  0.10566000000E+00  0.10566000000E+00 0. -1.
     999900   -1    0    0    0    0 -0.00000000000E+00 -0.00000000000E+00 -0.74505805969E-08  0.93827000000E+00  0.93827000000E+00 0. -1.
     999902    2    1    2    0    0 -0.22864857191E-01  0.71727874008E-02 -0.14745090118E-03  0.10199660205E+01  0.10196844662E+01 0.  0.
     999903    2    3    3    0    0 -0.55408092620E-01 -0.10713129446E+00 -0.47040789600E-01  0.13073968790E+00  0.18244427300E-01 0.  0.
         14    1    1    2    0    0  0.22864857191E-01 -0.71727874008E-02  0.14745090118E-03  0.23963979537E-01  0.00000000000E+00 0.  1.
     999901    1    3    3    0    0  0.32543235429E-01  0.11430408186E+00  0.46893338699E-01  0.88922633256E+00  0.88000000000E+00 0.  1.
        -11    1    4    4    0    0 -0.20129049055E-01 -0.22918778443E-01 -0.14814632118E-01  0.33914354880E-01  0.51100000000E-03 0.  1.
         11    1    4    4    0    0 -0.35279043565E-01 -0.84212516013E-01 -0.32226157482E-01  0.96825333024E-01  0.51100000000E-03 0. -1.
</event>
<event>
 8    1  0.1166736E+005  0.1043930E+01  0.7957747E-01            NaN
         13   -1    0    0    0    0  0.00000000000E+00  0.00000000000E+00  0.74505805969E-08  0.10566000000E+00  0.10566000000E+00 0.  1.
     999900   -1    0    0    0    0 -0.00000000000E+00 -0.00000000000E+00 -0.74505805969E-08  0.93827000000E+00  0.93827000000E+00 0. -1.
     999902    2    1    2    0    0 -0.23247632619E-01  0.75224581874E-02  0.85341453337E-02  0.10180481253E+01  0.10177190742E+01 0.  0.
     999903    2    3    3    0    0  0.12169991387E+00  0.14210584873E-01  0.22108145941E-01  0.12606226459E+00  0.19751320911E-01 0.  0.
         14    1    1    2    0    0  0.23247632619E-01 -0.75224581874E-02 -0.85341453337E-02  0.25881874665E-01  0.00000000000E+00 0. -1.
     999901    1    3    3    0    0 -0.14494754649E+00 -0.66881266861E-02 -0.13574000607E-01  0.89198586074E+00  0.88000000000E+00 0. -1.
        -11    1    4    4    0    0  0.71234785388E-01 -0.10780233680E-03  0.76468485589E-02  0.71645946742E-01  0.51100000000E-03 0. -1.
         11    1    4    4    0    0  0.50465128486E-01  0.14318387210E-01  0.14461297382E-01  0.54416317850E-01  0.51100000000E-03 0.  1.
</event>
<event>
 8    1  0.1166736E+005  0.1043930E+01  0.7957747E-01            NaN
         13   -1    0    0    0    0  0.00000000000E+00  0.00000000000E+00  0.74505805969E-08  0.10566000000E+00  0.10566000000E+00 0.  1.
     999900   -1    0    0    0    0 -0.00000000000E+00 -0.00000000000E+00 -0.74505805969E-08  0.93827000000E+00  0.93827000000E+00 0. -1.
     999902    2    1    2    0    0 -0.21838704726E-01  0.94532539725E-02  0.81611521385E-03  0.10201190975E+01  0.10198411710E+01 0.  0.
     999903    2    3    3    0    0 -0.85617862021E-01 -0.31527065401E-01  0.93346258639E-01  0.13202619979E+00  0.19824713867E-01 0.  0.
         14    1    1    2    0    0  0.21838704726E-01 -0.94532539725E-02 -0.81611521385E-03  0.23810902520E-01  0.00000000000E+00 0. -1.
     999901    1    3    3    0    0  0.63779157295E-01  0.40980319373E-01 -0.92530143426E-01  0.88809289769E+00  0.88000000000E+00 0. -1.
        -11    1    4    4    0    0 -0.12051565966E-01 -0.11423873817E-01  0.22196315019E-01  0.27725126811E-01  0.51100000000E-03 0. -1.
         11    1    4    4    0    0 -0.73566296055E-01 -0.20103191583E-01  0.71149943620E-01  0.10430107298E+00  0.51100000000E-03 0.  1.
</event>
<event>
 8    1  0.1166736E+005  0.1043930E+01  0.7957747E-01            NaN
         13   -1    0    0    0    0  0.00000000000E+00  0.00000000000E+00  0.74505805969E-08  0.10566000000E+00  0.10566000000E+00 0.  1.
     999900   -1    0    0    0    0 -0.00000000000E+00 -0.00000000000E+00 -0.74505805969E-08  0.93827000000E+00  0.93827000000E+00 0.  1.
     999902    2    1    2    0    0 -0.11821365026E-01 -0.19329867295E-01 -0.71829617485E-02  0.10201606210E+01  0.10198836743E+01 0.  0.
     999903    2    3    3    0    0 -0.11488723591E+00  0.35678193020E-02  0.60393616244E-01  0.13127734870E+00  0.19353219124E-01 0.  0.
         14    1    1    2    0    0  0.11821365026E-01  0.19329867295E-01  0.71829617485E-02  0.23769379045E-01  0.00000000000E+00 0. -1.
     999901    1    3    3    0    0  0.10306587088E+00 -0.22897686597E-01 -0.67576577993E-01  0.88888327225E+00  0.88000000000E+00 0. -1.
        -11    1    4    4    0    0 -0.85491893096E-01  0.96279847259E-02  0.39272842137E-01  0.94573670361E-01  0.51100000000E-03 0.  1.
         11    1    4    4    0    0 -0.29395342813E-01 -0.60601654240E-02  0.21120774108E-01  0.36703678344E-01  0.51100000000E-03 0. -1.
</event>
<event>
 8    1  0.1166736E+005  0.1043930E+01  0.7957747E-01            NaN
         13   -1    0    0    0    0  0.00000000000E+00  0.00000000000E+00  0.74505805969E-08  0.10566000000E+00  0.10566000000E+00 0.  1.
     999900   -1    0    0    0    0 -0.00000000000E+00 -0.00000000000E+00 -0.74505805969E-08  0.93827000000E+00  0.93827000000E+00 0. -1.
     999902    2    1    2    0    0  0.95550820377E-02 -0.14816472547E-01  0.16632074875E-01  0.10196925627E+01  0.10194044679E+01 0.  0.
     999903    2    3    3    0    0  0.78136930672E-02  0.94697121839E-01  0.86783435535E-01  0.13013229315E+00  0.19350719694E-01 0.  0.
         14    1    1    2    0    0 -0.95550820377E-02  0.14816472547E-01 -0.16632074875E-01  0.24237437284E-01  0.00000000000E+00 0. -1.
     999901    1    3    3    0    0  0.17413889705E-02 -0.10951359439E+00 -0.70151360660E-01  0.88956026957E+00  0.88000000000E+00 0.  1.
        -11    1    4    4    0    0 -0.50102690540E-05  0.80055417722E-01  0.67790050066E-01  0.10490291674E+00  0.51100000000E-03 0.  1.
         11    1    4    4    0    0  0.78187033363E-02  0.14641704117E-01  0.18993385469E-01  0.25229376407E-01  0.51100000000E-03 0. -1.
</event>
<event>
 8    1  0.1166736E+005  0.1043930E+01  0.7957747E-01            NaN
         13   -1    0    0    0    0  0.00000000000E+00  0.00000000000E+00  0.74505805969E-08  0.10566000000E+00  0.10566000000E+00 0. -1.
     999900   -1    0    0    0    0 -0.00000000000E+00 -0.00000000000E+00 -0.74505805969E-08  0.93827000000E+00  0.93827000000E+00 0.  1.
     999902    2    1    2    0    0  0.24508923915E-02  0.10067630330E-01 -0.24937167270E-01  0.10169258084E+01  0.10165672006E+01 0.  0.
     999903    2    3    3    0    0  0.80789535754E-01  0.91792301328E-01 -0.38089443391E-01  0.12957647059E+00  0.19659103817E-01 0.  0.
         14    1    1    2    0    0 -0.24508923915E-02 -0.10067630330E-01  0.24937167270E-01  0.27004191626E-01  0.00000000000E+00 0. -1.
     999901    1    3    3    0    0 -0.78338643363E-01 -0.81724670998E-01  0.13152276121E-01  0.88734933778E+00  0.88000000000E+00 0.  1.
        -11    1    4    4    0    0  0.71932906562E-01  0.72526831347E-01 -0.27078238112E-01  0.10567864691E+00  0.51100000000E-03 0. -1.
         11    1    4    4    0    0  0.88566291925E-02  0.19265469981E-01 -0.11011205279E-01  0.23897823686E-01  0.51100000000E-03 0.  1.
</event>
<event>
 8    1  0.1166736E+005  0.1043930E+01  0.7957747E-01            NaN
         13   -1    0    0    0    0  0.00000000000E+00  0.00000000000E+00  0.74505805969E-08  0.10566000000E+00  0.10566000000E+00 0.  1.
     999900   -1    0    0    0    0 -0.00000000000E+00 -0.00000000000E+00 -0.74505805969E-08  0.93827000000E+00  0.93827000000E+00 0. -1.
     999902    2    1    2    0    0  0.12711498852E-01 -0.10071802244E-01  0.15979519822E-01  0.10211622935E+01  0.10209084490E+01 0.  0.
     999903    2    3    3    0    0 -0.23882144926E-01  0.12615214153E+00 -0.20937767584E-03  0.12978238687E+00  0.18939494278E-01 0.  0.
         14    1    1    2    0    0 -0.12711498852E-01  0.10071802244E-01 -0.15979519822E-01  0.22767706455E-01  0.00000000000E+00 0. -1.
     999901    1    3    3    0    0  0.36593643778E-01 -0.13622394377E+00  0.16188897497E-01  0.89137990668E+00  0.88000000000E+00 0.  1.
        -11    1    4    4    0    0 -0.87605902490E-02  0.89991602721E-01  0.28637777865E-02  0.90463798539E-01  0.51100000000E-03 0. -1.
         11    1    4    4    0    0 -0.15121554677E-01  0.36160538809E-01 -0.30731554623E-02  0.39318588331E-01  0.51100000000E-03 0.  1.
</event>
<event>
 8    1  0.1166736E+005  0.1043930E+01  0.7957747E-01            NaN
         13   -1    0    0    0    0  0.00000000000E+00  0.00000000000E+00  0.74505805969E-08  0.10566000000E+00  0.10566000000E+00 0. -1.
     999900   -1    0    0    0    0 -0.00000000000E+00 -0.00000000000E+00 -0.74505805969E-08  0.93827000000E+00  0.93827000000E+00 0. -1.
     999902    2    1    2    0    0  0.11941610736E-01  0.20278875116E-01 -0.12078630917E-02  0.10203653278E+01  0.10200931861E+01 0.  0.
     999903    2    3    3    0    0 -0.97818810845E-01 -0.42174359327E-02 -0.82453564370E-01  0.12949593031E+00  0.19603549882E-01 0.  0.
         14    1    1    2    0    0 -0.11941610736E-01 -0.20278875116E-01  0.12078630917E-02  0.23564672206E-01  0.00000000000E+00 0. -1.
     999901    1    3    3    0    0  0.10976042158E+00  0.24496311049E-01  0.81245701278E-01  0.89086939749E+00  0.88000000000E+00 0. -1.
        -11    1    4    4    0    0 -0.36523456937E-01  0.76876577233E-02 -0.33417060373E-01  0.50100140049E-01  0.51100000000E-03 0.  1.
         11    1    4    4    0    0 -0.61295353908E-01 -0.11905093656E-01 -0.49036503997E-01  0.79395790259E-01  0.51100000000E-03 0. -1.
</event>
<event>
 8    1  0.1166736E+005  0.1043930E+01  0.7957747E-01            NaN
         13   -1    0    0    0    0  0.00000000000E+00  0.00000000000E+00  0.74505805969E-08  0.10566000000E+00  0.10566000000E+00 0.  1.
     999900   -1    0    0    0    0 -0.00000000000E+00 -0.00000000000E+00 -0.74505805969E-08  0.93827000000E+00  0.93827000000E+00 0. -1.
     999902    2    1    2    0    0 -0.55294276259E-02 -0.17150097670E-01  0.14458041435E-01  0.10208272863E+01  0.10205658298E+01 0.  0.
     999903    2    3    3    0    0  0.14169853463E-01  0.66325499854E-01  0.11068246934E+00  0.13143683343E+00  0.20619783838E-01 0.  0.
         14    1    1    2    0    0  0.55294276259E-02  0.17150097670E-01 -0.14458041435E-01  0.23102713739E-01  0.00000000000E+00 0. -1.
     999901    1    3    3    0    0 -0.19699281089E-01 -0.83475597524E-01 -0.96224427904E-01  0.88939045283E+00  0.88000000000E+00 0. -1.
        -11    1    4    4    0    0 -0.18140385140E-03  0.34154891414E-01  0.67960473735E-01  0.76062320673E-01  0.51100000000E-03 0.  1.
         11    1    4    4    0    0  0.14351257314E-01  0.32170608440E-01  0.42721995605E-01  0.55374512759E-01  0.51100000000E-03 0. -1.
</event>
<event>
 8    1  0.1166736E+005  0.1043930E+01  0.7957747E-01            NaN
         13   -1    0    0    0    0  0.00000000000E+00  0.00000000000E+00  0.74505805969E-08  0.10566000000E+00  0.10566000000E+00 0.  1.
     999900   -1    0    0    0    0 -0.00000000000E+00 -0.00000000000E+00 -0.74505805969E-08  0.93827000000E+00  0.93827000000E+00 0.  1.
     999902    2    1    2    0    0 -0.10016361711E-02  0.20194767649E-01 -0.19430261345E-01  0.10158877645E+01  0.10155006564E+01 0.  0.
     999903    2    3    3    0    0 -0.82478734575E-01 -0.85720812555E-01 -0.35206381296E-01  0.12565997700E+00  0.20003529021E-01 0.  0.
         14    1    1    2    0    0  0.10016361711E-02 -0.20194767649E-01  0.19430261345E-01  0.28042235491E-01  0.00000000000E+00 0.  1.
     999901    1    3    3    0    0  0.81477098404E-01  0.10591558020E+00  0.15776119951E-01  0.89022778751E+00  0.88000000000E+00 0. -1.
        -11    1    4    4    0    0 -0.22352923120E-01 -0.19447642767E-01 -0.17581035832E-01  0.34456028836E-01  0.51100000000E-03 0.  1.
         11    1    4    4    0    0 -0.60125811454E-01 -0.66273169789E-01 -0.17625345464E-01  0.91203948163E-01  0.51100000000E-03 0. -1.
</event>
<event>
 8    1  0.1166736E+005  0.1043930E+01  0.7957747E-01            NaN
         13   -1    0    0    0    0  0.00000000000E+00  0.00000000000E+00  0.74505805969E-08  0.10566000000E+00  0.10566000000E+00 0. -1.
     999900   -1    0    0    0    0 -0.00000000000E+00 -0.00000000000E+00 -0.74505805969E-08  0.93827000000E+00  0.93827000000E+00 0. -1.
     999902    2    1    2    0    0 -0.23187162274E-01  0.12043820519E-02  0.22217942715E-02  0.10206055193E+01  0.10203389606E+01 0.  0.
     999903    2    3    3    0    0 -0.22767986981E-01  0.12484550938E+00 -0.27974244491E-01  0.13144911863E+00  0.19787116787E-01 0.  0.
         14    1    1    2    0    0  0.23187162274E-01 -0.12043820519E-02 -0.22217942715E-02  0.23324480707E-01  0.00000000000E+00 0.  1.
     999901    1    3    3    0    0 -0.41917529361E-03 -0.12364112733E+00  0.30196038763E-01  0.88915640066E+00  0.88000000000E+00 0.  1.
        -11    1    4    4    0    0 -0.66176025607E-02  0.86179206114E-01 -0.16440096673E-01  0.87984010649E-01  0.51100000000E-03 0. -1.
         11    1    4    4    0    0 -0.16150384420E-01  0.38666303268E-01 -0.11534147818E-01  0.43465107986E-01  0.51100000000E-03 0.  1.
</event>
<event>
 8    1  0.1166736E+005  0.1043930E+01  0.7957747E-01            NaN
         13   -1    0    0    0    0  0.00000000000E+00  0.00000000000E+00  0.74505805969E-08  0.10566000000E+00  0.10566000000E+00 0.  1.
     999900   -1    0    0    0    0 -0.00000000000E+00 -0.00000000000E+00 -0.74505805969E-08  0.93827000000E+00  0.93827000000E+00 0.  1.
     999902    2    1    2    0    0  0.26122569193E-01  0.12445826884E-01 -0.40704717970E-02  0.10147091860E+01  0.10142883595E+01 0.  0.
     999903    2    3    3    0    0  0.10096852140E+00  0.77233478254E-01 -0.36430590533E-02  0.12915877019E+00  0.22562436938E-01 0.  0.
         14    1    1    2    0    0 -0.26122569193E-01 -0.12445826884E-01  0.40704717970E-02  0.29220813964E-01  0.00000000000E+00 0.  1.
     999901    1    3    3    0    0 -0.74845952202E-01 -0.64787651370E-01 -0.42741274369E-03  0.88555041585E+00  0.88000000000E+00 0.  1.
        -11    1    4    4    0    0  0.74492812872E-01  0.45570814322E-01 -0.77897685051E-02  0.87674511130E-01  0.51100000000E-03 0.  1.
         11    1    4    4    0    0  0.26475708524E-01  0.31662663933E-01  0.41467094518E-02  0.41484259056E-01  0.51100000000E-03 0. -1.
</event>
<event>
 8    1  0.1166736E+005  0.1043930E+01  0.7957747E-01            NaN
         13   -1    0    0    0    0  0.00000000000E+00  0.00000000000E+00  0.74505805969E-08  0.10566000000E+00  0.10566000000E+00 0. -1.
     999900   -1    0    0    0    0 -0.00000000000E+00 -0.00000000000E+00 -0.74505805969E-08  0.93827000000E+00  0.93827000000E+00 0. -1.
     999902    2    1    2    0    0 -0.19566228271E-01  0.26751272636E-02 -0.13812215586E-01  0.10198308113E+01  0.10195460327E+01 0.  0.
     999903    2    3    3    0    0 -0.71388179851E-01 -0.28026136090E-01 -0.10662661249E+00  0.13290206871E+00  0.20297508419E-01 0.  0.
         14    1    1    2    0    0  0.19566228271E-01 -0.26751272636E-02  0.13812215586E-01  0.24099188659E-01  0.00000000000E+00 0.  1.
     999901    1    3    3    0    0  0.51821951579E-01  0.30701263354E-01  0.92814396908E-01  0.88692874263E+00  0.88000000000E+00 0.  1.
        -11    1    4    4    0    0 -0.28799912500E-01 -0.20396675674E-01 -0.57189165757E-01  0.67203579812E-01  0.51100000000E-03 0. -1.
         11    1    4    4    0    0 -0.42588267351E-01 -0.76294604159E-02 -0.49437446737E-01  0.65698488895E-01  0.51100000000E-03 0.  1.
</event>
<event>
 8    1  0.1166736E+005  0.1043930E+01  0.7957747E-01            NaN
         13   -1    0    0    0    0  0.00000000000E+00  0.00000000000E+00  0.74505805969E-08  0.10566000000E+00  0.10566000000E+00 0.  1.
     999900   -1    0    0    0    0 -0.00000000000E+00 -0.00000000000E+00 -0.74505805969E-08  0.93827000000E+00  0.93827000000E+00 0. -1.
     999902    2    1    2    0    0 -0.93732097126E-02  0.12261210085E-01 -0.16959572581E-01  0.10209992033E+01  0.10207416675E+01 0.  0.
     999903    2    3    3    0    0 -0.35264735988E-01  0.11901092976E+00 -0.45677946111E-01  0.13370521669E+00  0.19580786520E-01 0.  0.
         14    1    1    2    0    0  0.93732097126E-02 -0.12261210085E-01  0.16959572581E-01  0.22930796654E-01  0.00000000000E+00 0. -1.
     999901    1    3    3    0    0  0.25891526275E-01 -0.10674971968E+00  0.28718373530E-01  0.88729398666E+00  0.88000000000E+00 0.  1.
        -11    1    4    4    0    0 -0.88600050247E-02  0.27646610035E-01 -0.19793876738E-01  0.35141050251E-01  0.51100000000E-03 0.  1.
         11    1    4    4    0    0 -0.26404730963E-01  0.91364319728E-01 -0.25884069374E-01  0.98564166435E-01  0.51100000000E-03 0. -1.
</event>
<event>
 8    1  0.1166736E+005  0.1043930E+01  0.7957747E-01            NaN
         13   -1    0    0    0    0  0.00000000000E+00  0.00000000000E+00  0.74505805969E-08  0.10566000000E+00  0.10566000000E+00 0.  1.
     999900   -1    0    0    0    0 -0.00000000000E+00 -0.00000000000E+00 -0.74505805969E-08  0.93827000000E+00  0.93827000000E+00 0.  1.
     999902    2    1    2    0    0 -0.91471800039E-02  0.69878837875E-02 -0.18294808918E-01  0.10223151566E+01  0.10220866294E+01 0.  0.
     999903    2    3    3    0    0  0.75456840257E-01  0.41814461478E-01  0.95633903260E-01  0.13026668134E+00  0.19528975503E-01 0.  0.
         14    1    1    2    0    0  0.91471800039E-02 -0.69878837875E-02  0.18294808918E-01  0.21614843400E-01  0.00000000000E+00 0.  1.
     999901    1    3    3    0    0 -0.84604020260E-01 -0.34826577691E-01 -0.11392871218E+00  0.89204847526E+00  0.88000000000E+00 0.  1.
        -11    1    4    4    0    0  0.10608176357E-01  0.55122336210E-02  0.25091802439E-01  0.27798881197E-01  0.51100000000E-03 0.  1.
         11    1    4    4    0    0  0.64848663899E-01  0.36302227857E-01  0.70542100820E-01  0.10246780014E+00  0.51100000000E-03 0. -1.
</event>
<event>
 8    1  0.1166736E+005  0.1043930E+01  0.7957747E-01            NaN
         13   -1    0    0    0    0  0.00000000000E+00  0.00000000000E+00  0.74505805969E-08  0.10566000000E+00  0.10566000000E+00 0. -1.
     999900   -1    0    0    0    0 -0.00000000000E+00 -0.00000000000E+00 -0.74505805969E-08  0.93827000000E+00  0.93827000000E+00 0. -1.
     999902    2    1    2    0    0 -0.12791852095E-02 -0.12495969773E-01 -0.20971082518E-01  0.10194847167E+01  0.10191915991E+01 0.  0.
     999903    2    3    3    0    0 -0.23313514932E-01 -0.53390345737E-01 -0.11806142929E+00  0.13292710595E+00  0.18359341346E-01 0.  0.
         14    1    1    2    0    0  0.12791852095E-02  0.12495969773E-01  0.20971082518E-01  0.24445283336E-01  0.00000000000E+00 0. -1.
     999901    1    3    3    0    0  0.22034329722E-01  0.40894375964E-01  0.97090346773E-01  0.88655761071E+00  0.88000000000E+00 0.  1.
        -11    1    4    4    0    0 -0.20007578041E-01 -0.47795547792E-01 -0.87616041703E-01  0.10179169638E+00  0.51100000000E-03 0.  1.
         11    1    4    4    0    0 -0.33059368909E-02 -0.55947979451E-02 -0.30445387588E-01  0.31135409571E-01  0.51100000000E-03 0. -1.
</event>
<event>
 8    1  0.1166736E+005  0.1043930E+01  0.7957747E-01            NaN
         13   -1    0    0    0    0  0.00000000000E+00  0.00000000000E+00  0.74505805969E-08  0.10566000000E+00  0.10566000000E+00 0.  1.
     999900   -1    0    0    0    0 -0.00000000000E+00 -0.00000000000E+00 -0.74505805969E-08  0.93827000000E+00  0.93827000000E+00 0. -1.
     999902    2    1    2    0    0 -0.80159384929E-02 -0.30466999137E-02 -0.21549125277E-01  0.10207372759E+01  0.10204737547E+01 0.  0.
     999903    2    3    3    0    0 -0.69709227353E-01 -0.87627728709E-01  0.66136516675E-01  0.13020441064E+00  0.64151770457E-02 0.  0.
         14    1    1    2    0    0  0.80159384929E-02  0.30466999137E-02  0.21549125277E-01  0.23192724085E-01  0.00000000000E+00 0.  1.
     999901    1    3    3    0    0  0.61693288860E-01  0.84581028795E-01 -0.87685641952E-01  0.89053286527E+00  0.88000000000E+00 0. -1.
        -11    1    4    4    0    0 -0.19514308188E-01 -0.25680097270E-01  0.22306835876E-01  0.39219021757E-01  0.51100000000E-03 0.  1.
         11    1    4    4    0    0 -0.50194919165E-01 -0.61947631439E-01  0.43829680799E-01  0.90985388887E-01  0.51100000000E-03 0. -1.
</event>
<event>
 8    1  0.1166736E+005  0.1043930E+01  0.7957747E-01            NaN
         13   -1    0    0    0    0  0.00000000000E+00  0.00000000000E+00  0.74505805969E-08  0.10566000000E+00  0.10566000000E+00 0. -1.
     999900   -1    0    0    0    0 -0.00000000000E+00 -0.00000000000E+00 -0.74505805969E-08  0.93827000000E+00  0.93827000000E+00 0. -1.
     999902    2    1    2    0    0  0.18190201881E-01  0.34617423658E-02  0.14439837332E-01  0.10204486030E+01  0.10201784037E+01 0.  0.
     999903    2    3    3    0    0  0.75308024634E-01  0.10486573902E+00  0.23924029961E-01  0.13273515476E+00  0.19445830009E-01 0.  0.
         14    1    1    2    0    0 -0.18190201881E-01 -0.34617423658E-02 -0.14439837332E-01  0.23481397038E-01  0.00000000000E+00 0.  1.
     999901    1    3    3    0    0 -0.57117822753E-01 -0.10140399665E+00 -0.94841926296E-02  0.88771344820E+00  0.88000000000E+00 0. -1.
        -11    1    4    4    0    0  0.65937746907E-01  0.78592307922E-01  0.16995746030E-01  0.10398871975E+00  0.51100000000E-03 0.  1.
         11    1    4    4    0    0  0.93702777271E-02  0.26273431097E-01  0.69282839308E-02  0.28746435005E-01  0.51100000000E-03 0. -1.
</event>
<event>
 8    1  0.1166736E+005  0.1043930E+01  0.7957747E-01            NaN
         13   -1    0    0    0    0  0.00000000000E+00  0.00000000000E+00  0.74505805969E-08  0.10566000000E+00  0.10566000000E+00 0. -1.
     999900   -1    0    0    0    0 -0.00000000000E+00 -0.00000000000E+00 -0.74505805969E-08  0.93827000000E+00  0.93827000000E+00 0.  1.
     999902    2    1    2    0    0  0.20744803312E-01 -0.19866722926E-02  0.11825243875E-01  0.10199689874E+01  0.10196875037E+01 0.  0.
     999903    2    3    3    0    0 -0.46227647056E-01  0.81298428768E-01  0.88320585370E-01  0.13020876442E+00  0.20183326241E-01 0.  0.
         14    1    1    2    0    0 -0.20744803312E-01  0.19866722926E-02 -0.11825243875E-01  0.23961012582E-01  0.00000000000E+00 0. -1.
     999901    1    3    3    0    0  0.66972450368E-01 -0.83285101061E-01 -0.76495341495E-01  0.88976022300E+00  0.88000000000E+00 0.  1.
        -11    1    4    4    0    0 -0.21261662469E-01  0.55621368068E-01  0.60147304067E-01  0.84638963747E-01  0.51100000000E-03 0. -1.
         11    1    4    4    0    0 -0.24965984587E-01  0.25677060700E-01  0.28173281303E-01  0.45569800669E-01  0.51100000000E-03 0.  1.
</event>
<event>
 8    1  0.1166736E+005  0.1043930E+01  0.7957747E-01            NaN
         13   -1    0    0    0    0  0.00000000000E+00  0.00000000000E+00  0.74505805969E-08  0.10566000000E+00  0.10566000000E+00 0. -1.
     999900   -1    0    0    0    0 -0.00000000000E+00 -0.00000000000E+00 -0.74505805969E-08  0.93827000000E+00  0.93827000000E+00 0.  1.
     999902    2    1    2    0    0 -0.19854583196E-01 -0.12444451166E-01  0.40368701924E-02  0.10201525914E+01  0.10198754554E+01 0.  0.
     999903    2    3    3    0    0 -0.36247724683E-01 -0.11376297883E+00 -0.53181689601E-01  0.13234172037E+00  0.20739477926E-01 0.  0.
         14    1    1    2    0    0  0.19854583196E-01  0.12444451166E-01 -0.40368701924E-02  0.23777408598E-01  0.00000000000E+00 0. -1.
     999901    1    3    3    0    0  0.16393141487E-01  0.10131852767E+00  0.57218559793E-01  0.88781087103E+00  0.88000000000E+00 0. -1.
        -11    1    4    4    0    0 -0.21913462127E-01 -0.47750485210E-01 -0.14531633059E-01  0.54513650956E-01  0.51100000000E-03 0.  1.
         11    1    4    4    0    0 -0.14334262555E-01 -0.66012493621E-01 -0.38650056542E-01  0.77828069415E-01  0.51100000000E-03 0. -1.
</event>
<event>
 8    1  0.1166736E+005  0.1043930E+01  0.7957747E-01            NaN
         13   -1    0    0    0    0  0.00000000000E+00  0.00000000000E+00  0.74505805969E-08  0.10566000000E+00  0.10566000000E+00 0. -1.
     999900   -1    0    0    0    0 -0.00000000000E+00 -0.00000000000E+00 -0.74505805969E-08  0.93827000000E+00  0.93827000000E+00 0.  1.
     999902    2    1    2    0    0  0.10338343771E-01  0.17605075591E-01 -0.10613884411E-01  0.10209196853E+01  0.10206603398E+01 0.  0.
     999903    2    3    3    0    0 -0.64643037215E-01  0.79793195521E-01  0.78767649974E-01  0.13104406007E+00  0.20555453925E-01 0.  0.
         14    1    1    2    0    0 -0.10338343771E-01 -0.17605075591E-01  0.10613884411E-01  0.23010314661E-01  0.00000000000E+00 0. -1.
     999901    1    3    3    0    0  0.74981380986E-01 -0.62188119929E-01 -0.89381534385E-01  0.88987562527E+00  0.88000000000E+00 0.  1.
        -11    1    4    4    0    0 -0.11774131079E-01  0.11965129490E-01  0.23248037684E-01  0.28679729140E-01  0.51100000000E-03 0.  1.
         11    1    4    4    0    0 -0.52868906136E-01  0.67828066030E-01  0.55519612290E-01  0.10236433093E+00  0.51100000000E-03 0. -1.
</event>
<event>
 8    1  0.1166736E+005  0.1043930E+01  0.7957747E-01            NaN
         13   -1    0    0    0    0  0.00000000000E+00  0.00000000000E+00  0.74505805969E-08  0.10566000000E+00  0.10566000000E+00 0. -1.
     999900   -1    0    0    0    0 -0.00000000000E+00 -0.00000000000E+00 -0.74505805969E-08  0.93827000000E+00  0.93827000000E+00 0. -1.
     999902    2    1    2    0    0  0.47650886873E-03 -0.12064021594E-02 -0.23795314516E-01  0.10200993588E+01  0.10198209658E+01 0.  0.
     999903    2    3    3    0    0  0.89002012576E-01 -0.70414992168E-01  0.58295813594E-01  0.12916414957E+00  0.20133213532E-01 0.  0.
         14    1    1    2    0    0 -0.47650886873E-03  0.12064021594E-02  0.23795314516E-01  0.23830641196E-01  0.00000000000E+00 0. -1.
     999901    1    3    3    0    0 -0.88525503707E-01  0.69208590009E-01 -0.82091128111E-01  0.89093520923E+00  0.88000000000E+00 0.  1.
        -11    1    4    4    0    0  0.21541441251E-01 -0.28873426118E-01  0.18849336234E-01  0.40660386427E-01  0.51100000000E-03 0.  1.
         11    1    4    4    0    0  0.67460571325E-01 -0.41541566050E-01  0.39446477361E-01  0.88503763143E-01  0.51100000000E-03 0. -1.
</event>
<event>
 8    1  0.1166736E+005  0.1043930E+01  0.7957747E-01            NaN
         13   -1    0    0    0    0  0.00000000000E+00  0.00000000000E+00  0.74505805969E-08  0.10566000000E+00  0.10566000000E+00 0. -1.
     999900   -1    0    0    0    0 -0.00000000000E+00 -0.00000000000E+00 -0.74505805969E-08  0.93827000000E+00  0.93827000000E+00 0. -1.
     999902    2    1    2    0    0 -0.22092617507E-01 -0.65419250817E-02  0.15385138868E-03  0.10208886415E+01  0.10206285877E+01 0.  0.
     999903    2    3    3    0    0  0.34434266247E-03  0.39090464254E-01 -0.12323426752E+00  0.13082664363E+00  0.20018566987E-01 0.  0.
         14    1    1    2    0    0  0.22092617507E-01  0.65419250817E-02 -0.15385138868E-03  0.23041358517E-01  0.00000000000E+00 0. -1.
     999901    1    3    3    0    0 -0.22436960169E-01 -0.45632389336E-01  0.12338811891E+00  0.89006199786E+00  0.88000000000E+00 0.  1.
        -11    1    4    4    0    0  0.39954420712E-02  0.32804018482E-01 -0.73859757836E-01  0.80917193071E-01  0.51100000000E-03 0.  1.
         11    1    4    4    0    0 -0.36510994087E-02  0.62864457723E-02 -0.49374509684E-01  0.49909450557E-01  0.51100000000E-03 0. -1.
</event>
<event>
 8    1  0.1166736E+005  0.1043930E+01  0.7957747E-01            NaN
         13   -1    0    0    0    0  0.00000000000E+00  0.00000000000E+00  0.74505805969E-08  0.10566000000E+00  0.10566000000E+00 0.  1.
     999900   -1    0    0    0    0 -0.00000000000E+00 -0.00000000000E+00 -0.74505805969E-08  0.93827000000E+00  0.93827000000E+00 0. -1.
     999902    2    1    2    0    0  0.11814177836E-01  0.16514092202E-01  0.11208089694E-01  0.10207370848E+01  0.10204735592E+01 0.  0.
     999903    2    3    3    0    0 -0.34810967739E-01  0.12200686143E+00 -0.31272699465E-01  0.13219488212E+00  0.20000685402E-01 0.  0.
         14    1    1    2    0    0 -0.11814177836E-01 -0.16514092202E-01 -0.11208089694E-01  0.23192915164E-01  0.00000000000E+00 0. -1.
     999901    1    3    3    0    0  0.46625145574E-01 -0.10549276923E+00  0.42480789159E-01  0.88854220272E+00  0.88000000000E+00 0. -1.
        -11    1    4    4    0    0 -0.83006803993E-02  0.64772696775E-01 -0.13880176043E-01  0.66763193082E-01  0.51100000000E-03 0. -1.
         11    1    4    4    0    0 -0.26510287340E-01  0.57234164654E-01 -0.17392523422E-01  0.65431689039E-01  0.51100000000E-03 0.  1.
</event>
<event>
 8    1  0.1166736E+005  0.1043930E+01  0.7957747E-01            NaN
         13   -1    0    0    0    0  0.00000000000E+00  0.00000000000E+00  0.74505805969E-08  0.10566000000E+00  0.10566000000E+00 0. -1.
     999900   -1    0    0    0    0 -0.00000000000E+00 -0.00000000000E+00 -0.74505805969E-08  0.93827000000E+00  0.93827000000E+00 0. -1.
     999902    2    1    2    0    0  0.11492654979E-01  0.10186928068E-01 -0.18224099289E-01  0.10200978281E+01  0.10198193990E+01 0.  0.
     999903    2    3    3    0    0  0.76987597199E-01  0.15249124716E-01 -0.10575880818E+00  0.13331852155E+00  0.20718995013E-01 0.  0.
         14    1    1    2    0    0 -0.11492654979E-01 -0.10186928068E-01  0.18224099289E-01  0.23832171886E-01  0.00000000000E+00 0. -1.
     999901    1    3    3    0    0 -0.65494942221E-01 -0.50621966479E-02  0.87534708886E-01  0.88677930656E+00  0.88000000000E+00 0.  1.
        -11    1    4    4    0    0  0.69354809008E-01  0.74265053836E-02 -0.85990709346E-01  0.11072445859E+00  0.51100000000E-03 0. -1.
         11    1    4    4    0    0  0.76327881915E-02  0.78226193324E-02 -0.19768098829E-01  0.22594062961E-01  0.51100000000E-03 0.  1.
</event>
<event>
 7    1  0.1166736E+005  0.1043930E+01  0.7957747E-01            NaN
         13   -1    0    0    0    0  0.00000000000E+00  0.00000000000E+00  0.74505805969E-08  0.10566000000E+00  0.10566000000E+00 0. -1.
     999900   -1    0    0    0    0 -0.00000000000E+00 -0.00000000000E+00 -0.74505805969E-08  0.93827000000E+00  0.93827000000E+00 0.  1.
     999903    2    1    2    0    0 -0.11138555206E+00  0.16007082865E-01  0.24083976581E-01  0.11681662240E+00  0.20077784517E-01 0.  0.
         14    1    1    2    0    0  0.83477750487E-02  0.37580529420E-01  0.60617113243E-02  0.38970833760E-01  0.00000000000E+00 0. -1.
     999901    1    1    2    0    0  0.10303777701E+00 -0.53587612285E-01 -0.30145687905E-01  0.88814254384E+00  0.88000000000E+00 0.  1.
        -11    1    3    3    0    0 -0.70949939613E-01  0.18633087294E-01  0.20309739747E-01  0.76117228817E-01  0.51100000000E-03 0. -1.
         11    1    3    3    0    0 -0.40435612447E-01 -0.26260044290E-02  0.37742368332E-02  0.40699393581E-01  0.51100000000E-03 0.  1.
</event>
<event>
 8    1  0.1166736E+005  0.1043930E+01  0.7957747E-01            NaN
         13   -1    0    0    0    0  0.00000000000E+00  0.00000000000E+00  0.74505805969E-08  0.10566000000E+00  0.10566000000E+00 0. -1.
     999900   -1    0    0    0    0 -0.00000000000E+00 -0.00000000000E+00 -0.74505805969E-08  0.93827000000E+00  0.93827000000E+00 0. -1.
     999902    2    1    2    0    0  0.11772014492E-01 -0.18024162096E-01 -0.89140136531E-02  0.10206295626E+01  0.10203635595E+01 0.  0.
     999903    2    3    3    0    0 -0.59038581233E-01 -0.71118288096E-01 -0.92605532558E-01  0.13223922212E+00  0.19184948060E-01 0.  0.
         14    1    1    2    0    0 -0.11772014492E-01  0.18024162096E-01  0.89140136531E-02  0.23300437418E-01  0.00000000000E+00 0. -1.
     999901    1    3    3    0    0  0.70810595724E-01  0.53094126000E-01  0.83691518905E-01  0.88839034046E+00  0.88000000000E+00 0.  1.
        -11    1    4    4    0    0 -0.27183047496E-01 -0.22939003635E-01 -0.25904149099E-01  0.44004568177E-01  0.51100000000E-03 0.  1.
         11    1    4    4    0    0 -0.31855533737E-01 -0.48179284461E-01 -0.66701383459E-01  0.88234653947E-01  0.51100000000E-03 0. -1.
</event>
<event>
 8    1  0.1166736E+005  0.1043930E+01  0.7957747E-01            NaN
         13   -1    0    0    0    0  0.00000000000E+00  0.00000000000E+00  0.74505805969E-08  0.10566000000E+00  0.10566000000E+00 0. -1.
     999900   -1    0    0    0    0 -0.00000000000E+00 -0.00000000000E+00 -0.74505805969E-08  0.93827000000E+00  0.93827000000E+00 0. -1.
     999902    2    1    2    0    0 -0.24245533163E-01  0.45383945657E-02 -0.56050919162E-03  0.10192569971E+01  0.10189583254E+01 0.  0.
     999903    2    3    3    0    0  0.67251944413E-01  0.87918058661E-01  0.61730965972E-01  0.12841235030E+00  0.20654551142E-01 0.  0.
         14    1    1    2    0    0  0.24245533163E-01 -0.45383945657E-02  0.56050919162E-03  0.24673002941E-01  0.00000000000E+00 0.  1.
     999901    1    3    3    0    0 -0.91497477575E-01 -0.83379664095E-01 -0.62291475164E-01  0.89084464676E+00  0.88000000000E+00 0. -1.
        -11    1    4    4    0    0  0.64866200925E-01  0.84140354005E-01  0.63274919534E-01  0.12365759078E+00  0.51100000000E-03 0.  1.
         11    1    4    4    0    0  0.23857434875E-02  0.37777046554E-02 -0.15439535622E-02  0.47547595159E-02  0.51100000000E-03 0. -1.
</event>
<event>
 8    1  0.1166736E+005  0.1043930E+01  0.7957747E-01            NaN
         13   -1    0    0    0    0  0.00000000000E+00  0.00000000000E+00  0.74505805969E-08  0.10566000000E+00  0.10566000000E+00 0. -1.
     999900   -1    0    0    0    0 -0.00000000000E+00 -0.00000000000E+00 -0.74505805969E-08  0.93827000000E+00  0.93827000000E+00 0.  1.
     999902    2    1    2    0    0  0.14752381677E-01  0.83990296471E-02 -0.15471311939E-01  0.10209618055E+01  0.10207034194E+01 0.  0.
     999903    2    3    3    0    0 -0.71928387345E-01 -0.66946724642E-01  0.80173380182E-01  0.12835974103E+00  0.19821588795E-01 0.  0.
         14    1    1    2    0    0 -0.14752381677E-01 -0.83990296471E-02  0.15471311939E-01  0.22968194471E-01  0.00000000000E+00 0.  1.
     999901    1    3    3    0    0  0.86680769022E-01  0.75345754289E-01 -0.95644692121E-01  0.89260206449E+00  0.88000000000E+00 0.  1.
        -11    1    4    4    0    0 -0.44197872107E-01 -0.30038055400E-01  0.50155478920E-01  0.73290994383E-01  0.51100000000E-03 0.  1.
         11    1    4    4    0    0 -0.27730515238E-01 -0.36908669242E-01  0.30017901262E-01  0.55068746652E-01  0.51100000000E-03 0. -1.
</event>
<event>
 8    1  0.1166736E+005  0.1043930E+01  0.7957747E-01            NaN
         13   -1    0    0    0    0  0.00000000000E+00  0.00000000000E+00  0.74505805969E-08  0.10566000000E+00  0.10566000000E+00 0.  1.
     999900   -1    0    0    0    0 -0.00000000000E+00 -0.00000000000E+00 -0.74505805969E-08  0.93827000000E+00  0.93827000000E+00 0.  1.
     999902    2    1    2    0    0  0.17118445690E-01  0.17461559645E-01  0.13834248412E-02  0.10194379378E+01  0.10191436836E+01 0.  0.
     999903    2    3    3    0    0  0.56229958573E-01 -0.11381769735E+00  0.67261281075E-02  0.12882438620E+00  0.20837591259E-01 0.  0.
         14    1    1    2    0    0 -0.17118445690E-01 -0.17461559645E-01 -0.13834248412E-02  0.24492062231E-01  0.00000000000E+00 0. -1.
     999901    1    3    3    0    0 -0.39111512883E-01  0.13127925700E+00 -0.53427032663E-02  0.89061355157E+00  0.88000000000E+00 0.  1.
        -11    1    4    4    0    0  0.48758942287E-01 -0.93004968545E-01 -0.20384875685E-02  0.10503225781E+00  0.51100000000E-03 0. -1.
         11    1    4    4    0    0  0.74710162856E-02 -0.20812728805E-01  0.87646156760E-02  0.23792128396E-01  0.51100000000E-03 0.  1.
</event>
<event>
 8    1  0.1166736E+005  0.1043930E+01  0.7957747E-01            NaN
         13   -1    0    0    0    0  0.00000000000E+00  0.00000000000E+00  0.74505805969E-08  0.10566000000E+00  0.10566000000E+00 0. -1.
     999900   -1    0    0    0    0 -0.00000000000E+00 -0.00000000000E+00 -0.74505805969E-08  0.93827000000E+00  0.93827000000E+00 0.  1.
     999902    2    1    2    0    0 -0.50444266198E-02 -0.22454244629E-01 -0.69097044344E-02  0.10199011973E+01  0.10196180996E+01 0.  0.
     999903    2    3    3    0    0 -0.96619502230E-01 -0.61265365556E-01  0.61552804774E-01  0.13165606634E+00  0.21349444982E-01 0.  0.
         14    1    1    2    0    0  0.50444266198E-02  0.22454244629E-01  0.69097044344E-02  0.24028802657E-01  0.00000000000E+00 0.  1.
     999901    1    3    3    0    0  0.91575075611E-01  0.38811120928E-01 -0.68462509208E-01  0.88824513100E+00  0.88000000000E+00 0. -1.
        -11    1    4    4    0    0 -0.35043340534E-01 -0.31757558092E-01  0.17672890511E-01  0.50489309678E-01  0.51100000000E-03 0. -1.
         11    1    4    4    0    0 -0.61576161696E-01 -0.29507807465E-01  0.43879914262E-01  0.81166756664E-01  0.51100000000E-03 0.  1.
</event>
<event>
 8    1  0.1166736E+005  0.1043930E+01  0.7957747E-01            NaN
         13   -1    0    0    0    0  0.00000000000E+00  0.00000000000E+00  0.74505805969E-08  0.10566000000E+00  0.10566000000E+00 0.  1.
     999900   -1    0    0    0    0 -0.00000000000E+00 -0.00000000000E+00 -0.74505805969E-08  0.93827000000E+00  0.93827000000E+00 0. -1.
     999902    2    1    2    0    0  0.11626106647E-01 -0.18684165208E-01  0.11504334658E-01  0.10190982844E+01  0.10187957102E+01 0.  0.
     999903    2    3    3    0    0 -0.65079647324E-01 -0.85822093952E-01  0.72102929882E-01  0.13114363242E+00  0.19975673237E-01 0.  0.
         14    1    1    2    0    0 -0.11626106647E-01  0.18684165208E-01 -0.11504334658E-01  0.24831715632E-01  0.00000000000E+00 0. -1.
     999901    1    3    3    0    0  0.76705753971E-01  0.67137928743E-01 -0.60598595224E-01  0.88795465195E+00  0.88000000000E+00 0. -1.
        -11    1    4    4    0    0 -0.18485282819E-01 -0.11358380779E-01  0.14339089584E-01  0.26011326493E-01  0.51100000000E-03 0. -1.
         11    1    4    4    0    0 -0.46594364505E-01 -0.74463713172E-01  0.57763840298E-01  0.10513230593E+00  0.51100000000E-03 0.  1.
</event>
<event>
 8    1  0.1166736E+005  0.1043930E+01  0.7957747E-01            NaN
         13   -1    0    0    0    0  0.00000000000E+00  0.00000000000E+00  0.74505805969E-08  0.10566000000E+00  0.10566000000E+00 0.  1.
     999900   -1    0    0    0    0 -0.00000000000E+00 -0.00000000000E+00 -0.74505805969E-08  0.93827000000E+00  0.93827000000E+00 0. -1.
     999902    2    1    2    0    0  0.13163494908E-01 -0.19313994836E-01 -0.39193682870E-02  0.10202304337E+01  0.10199551306E+01 0.  0.
     999903    2    3    3    0    0  0.52694572268E-01 -0.12003950817E+00 -0.15421117889E-01  0.13352832738E+00  0.20144524514E-01 0.  0.
         14    1    1    2    0    0 -0.13163494908E-01  0.19313994836E-01  0.39193682870E-02  0.23699566293E-01  0.00000000000E+00 0. -1.
     999901    1    3    3    0    0 -0.39531077360E-01  0.10072551334E+00  0.11501749602E-01  0.88670210632E+00  0.88000000000E+00 0. -1.
        -11    1    4    4    0    0  0.31042651942E-01 -0.76729445437E-01 -0.21321160334E-03  0.82772946165E-01  0.51100000000E-03 0.  1.
         11    1    4    4    0    0  0.21651920326E-01 -0.43310062737E-01 -0.15207906286E-01  0.50755381219E-01  0.51100000000E-03 0. -1.
</event>
<event>
 8    1  0.1166736E+005  0.1043930E+01  0.7957747E-01            NaN
         13   -1    0    0    0    0  0.00000000000E+00  0.00000000000E+00  0.74505805969E-08  0.10566000000E+00  0.10566000000E+00 0. -1.
     999900   -1    0    0    0    0 -0.00000000000E+00 -0.00000000000E+00 -0.74505805969E-08  0.93827000000E+00  0.93827000000E+00 0. -1.
     999902    2    1    2    0    0  0.16726190954E-01 -0.14539120147E-01 -0.81125083080E-02  0.10203299095E+01  0.10200569396E+01 0.  0.
     999903    2    3    3    0    0 -0.11446615433E+00  0.49622768974E-01  0.19451461656E-01  0.12786817260E+00  0.20174005887E-01 0.  0.
         14    1    1    2    0    0 -0.16726190954E-01  0.14539120147E-01  0.81125083080E-02  0.23600090456E-01  0.00000000000E+00 0.  1.
     999901    1    3    3    0    0  0.13119234529E+00 -0.64161889121E-01 -0.27563969964E-01  0.89246173695E+00  0.88000000000E+00 0. -1.
        -11    1    4    4    0    0 -0.53024946591E-01  0.13528052540E-01  0.13454177094E-01  0.56355382784E-01  0.51100000000E-03 0. -1.
         11    1    4    4    0    0 -0.61441207744E-01  0.36094716434E-01  0.59972845623E-02  0.71512789811E-01  0.51100000000E-03 0.  1.
</event>
<event>
 8    1  0.1166736E+005  0.1043930E+01  0.7957747E-01            NaN
         13   -1    0    0    0    0  0.00000000000E+00  0.00000000000E+00  0.74505805969E-08  0.10566000000E+00  0.10566000000E+00 0.  1.
     999900   -1    0    0    0    0 -0.00000000000E+00 -0.00000000000E+00 -0.74505805969E-08  0.93827000000E+00  0.93827000000E+00 0.  1.
     999902    2    1    2    0    0 -0.21749832375E-01  0.26384098500E-02  0.10539950636E-01  0.10196173084E+01  0.10193274001E+01 0.  0.
     999903    2    3    3    0    0 -0.12937378382E+00  0.16796913847E-01  0.16500047394E-01  0.13292745227E+00  0.19435630865E-01 0.  0.
         14    1    1    2    0    0  0.21749832375E-01 -0.26384098500E-02 -0.10539950636E-01  0.24312691629E-01  0.00000000000E+00 0.  1.
     999901    1    3    3    0    0  0.10762395145E+00 -0.14158503997E-01 -0.59600967582E-02  0.88668985610E+00  0.88000000000E+00 0.  1.
        -11    1    4    4    0    0 -0.42567567709E-01 -0.98214594026E-03  0.11830388912E-01  0.44194814787E-01  0.51100000000E-03 0.  1.
         11    1    4    4    0    0 -0.86806216115E-01  0.17779059787E-01  0.46696584820E-02  0.88732637481E-01  0.51100000000E-03 0. -1.
</event>
<event>
 8    1  0.1166736E+005  0.1043930E+01  0.7957747E-01            NaN
         13   -1    0    0    0    0  0.00000000000E+00  0.00000000000E+00  0.74505805969E-08  0.10566000000E+00  0.10566000000E+00 0. -1.
     999900   -1    0    0    0    0 -0.00000000000E+00 -0.00000000000E+00 -0.74505805969E-08  0.93827000000E+00  0.93827000000E+00 0. -1.
     999902    2    1    2    0    0  0.22380451960E-01 -0.76293635467E-03 -0.77027311196E-02  0.10202488098E+01  0.10199739385E+01 0.  0.
     999903    2    3    3    0    0 -0.10554900183E+00 -0.72759041596E-03 -0.70807279083E-01  0.12876233747E+00  0.20614257365E-01 0.  0.
         14    1    1    2    0    0 -0.22380451960E-01  0.76293635467E-03  0.77027311196E-02  0.23681190183E-01  0.00000000000E+00 0. -1.
     999901    1    3    3    0    0  0.12792945378E+00 -0.35345938710E-04  0.63104547963E-01  0.89148647234E+00  0.88000000000E+00 0.  1.
        -11    1    4    4    0    0 -0.27530191258E-01  0.66259667181E-02 -0.26246211305E-01  0.38612686963E-01  0.51100000000E-03 0.  1.
         11    1    4    4    0    0 -0.78018810567E-01 -0.73535571341E-02 -0.44561067778E-01  0.90149650512E-01  0.51100000000E-03 0. -1.
</event>
<event>
 8    1  0.1166736E+005  0.1043930E+01  0.7957747E-01            NaN
         13   -1    0    0    0    0  0.00000000000E+00  0.00000000000E+00  0.74505805969E-08  0.10566000000E+00  0.10566000000E+00 0. -1.
     999900   -1    0    0    0    0 -0.00000000000E+00 -0.00000000000E+00 -0.74505805969E-08  0.93827000000E+00  0.93827000000E+00 0. -1.
     999902    2    1    2    0    0  0.89346363188E-02  0.23145799624E-01 -0.59474354187E-02  0.10184167142E+01  0.10180970857E+01 0.  0.
     999903    2    3    3    0    0 -0.11769283501E+00 -0.83975353618E-02 -0.45008854563E-01  0.12793634214E+00  0.20488744207E-01 0.  0.
         14    1    1    2    0    0 -0.89346363188E-02 -0.23145799624E-01  0.59474354187E-02  0.25513285842E-01  0.00000000000E+00 0.  1.
     999901    1    3    3    0    0  0.12662747133E+00  0.31543334986E-01  0.39061419144E-01  0.89048037201E+00  0.88000000000E+00 0.  1.
        -11    1    4    4    0    0 -0.75763035286E-01 -0.11411039761E-01 -0.20670688330E-01  0.79358602692E-01  0.51100000000E-03 0.  1.
         11    1    4    4    0    0 -0.41929799724E-01  0.30135043991E-02 -0.24338166233E-01  0.48577739452E-01  0.51100000000E-03 0. -1.
</event>
<event>
 8    1  0.1166736E+005  0.1043930E+01  0.7957747E-01            NaN
         13   -1    0    0    0    0  0.00000000000E+00  0.00000000000E+00  0.74505805969E-08  0.10566000000E+00  0.10566000000E+00 0. -1.
     999900   -1    0    0    0    0 -0.00000000000E+00 -0.00000000000E+00 -0.74505805969E-08  0.93827000000E+00  0.93827000000E+00 0.  1.
     999902    2    1    2    0    0  0.19304246028E-01 -0.11316292302E-01  0.68530764486E-02  0.10205274992E+01  0.10202591336E+01 0.  0.
     999903    2    3    3    0    0 -0.12409932538E+00 -0.27277036982E-02  0.27000262912E-01  0.12865068190E+00  0.20344552818E-01 0.  0.
         14    1    1    2    0    0 -0.19304246028E-01  0.11316292302E-01 -0.68530764486E-02  0.23402500785E-01  0.00000000000E+00 0.  1.
     999901    1    3    3    0    0  0.14340357140E+00 -0.85885886039E-02 -0.20147186463E-01  0.89187681732E+00  0.88000000000E+00 0. -1.
        -11    1    4    4    0    0 -0.64835983763E-01 -0.92654158240E-02  0.20719273605E-01  0.68695721415E-01  0.51100000000E-03 0.  1.
         11    1    4    4    0    0 -0.59263341612E-01  0.65377121258E-02  0.62809893072E-02  0.59954960483E-01  0.51100000000E-03 0. -1.
</event>
<event>
 8    1  0.1166736E+005  0.1043930E+01  0.7957747E-01            NaN
         13   -1    0    0    0    0  0.00000000000E+00  0.00000000000E+00  0.74505805969E-08  0.10566000000E+00  0.10566000000E+00 0.  1.
     999900   -1    0    0    0    0 -0.00000000000E+00 -0.00000000000E+00 -0.74505805969E-08  0.93827000000E+00  0.93827000000E+00 0. -1.
     999902    2    1    2    0    0  0.24593854661E-02  0.22672766750E-01  0.70633708212E-02  0.10200554500E+01  0.10197760181E+01 0.  0.
     999903    2    3    3    0    0  0.75123797878E-01  0.73805814695E-01 -0.76242544109E-01  0.13166669454E+00  0.20792056840E-01 0.  0.
         14    1    1    2    0    0 -0.24593854661E-02 -0.22672766750E-01 -0.70633708212E-02  0.23874549971E-01  0.00000000000E+00 0.  1.
     999901    1    3    3    0    0 -0.72664412412E-01 -0.51133047945E-01  0.83305914930E-01  0.88838875549E+00  0.88000000000E+00 0. -1.
        -11    1    4    4    0    0  0.39777663712E-01  0.35237230174E-01 -0.50693013675E-01  0.73443636057E-01  0.51100000000E-03 0.  1.
         11    1    4    4    0    0  0.35346134166E-01  0.38568584520E-01 -0.25549530434E-01  0.58223058480E-01  0.51100000000E-03 0. -1.
</event>
<event>
 8    1  0.1166736E+005  0.1043930E+01  0.7957747E-01            NaN
         13   -1    0    0    0    0  0.00000000000E+00  0.00000000000E+00  0.74505805969E-08  0.10566000000E+00  0.10566000000E+00 0.  1.
     999900   -1    0    0    0    0 -0.00000000000E+00 -0.00000000000E+00 -0.74505805969E-08  0.93827000000E+00  0.93827000000E+00 0.  1.
     999902    2    1    2    0    0  0.18899602106E-01 -0.63350516109E-02  0.82327104015E-02  0.10223636985E+01  0.10221362075E+01 0.  0.
     999903    2    3    3    0    0  0.61116788094E-01  0.97486616227E-01 -0.63405020650E-01  0.13236752212E+00  0.16188333417E-01 0.  0.
         14    1    1    2    0    0 -0.18899602106E-01  0.63350516109E-02 -0.82327104015E-02  0.21566301473E-01  0.00000000000E+00 0. -1.
     999901    1    3    3    0    0 -0.42217185988E-01 -0.10382166784E+00  0.71637731051E-01  0.88999617641E+00  0.88000000000E+00 0.  1.
        -11    1    4    4    0    0  0.33186547315E-01  0.44930203208E-01 -0.38530038795E-01  0.67859377345E-01  0.51100000000E-03 0.  1.
         11    1    4    4    0    0  0.27930240779E-01  0.52556413019E-01 -0.24874981855E-01  0.64508144777E-01  0.51100000000E-03 0. -1.
</event>
<event>
 8    1  0.1166736E+005  0.1043930E+01  0.7957747E-01            NaN
         13   -1    0    0    0    0  0.00000000000E+00  0.00000000000E+00  0.74505805969E-08  0.10566000000E+00  0.10566000000E+00 0.  1.
     999900   -1    0    0    0    0 -0.00000000000E+00 -0.00000000000E+00 -0.74505805969E-08  0.93827000000E+00  0.93827000000E+00 0.  1.
     999902    2    1    2    0    0  0.76100050238E-02 -0.10426932387E-01  0.19995307300E-01  0.10201298864E+01  0.10198522146E+01 0.  0.
     999903    2    3    3    0    0  0.75502226955E-01 -0.36762617739E-01 -0.96570786319E-01  0.12946127441E+00  0.19550664021E-01 0.  0.
         14    1    1    2    0    0 -0.76100050238E-02  0.10426932387E-01 -0.19995307300E-01  0.23800113645E-01  0.00000000000E+00 0. -1.
     999901    1    3    3    0    0 -0.67892221931E-01  0.26335685352E-01  0.11656609362E+00  0.89066861194E+00  0.88000000000E+00 0.  1.
        -11    1    4    4    0    0  0.10139061159E-01 -0.25351177701E-02 -0.22985484566E-01  0.25255118393E-01  0.51100000000E-03 0.  1.
         11    1    4    4    0    0  0.65363165796E-01 -0.34227499969E-01 -0.73585301752E-01  0.10420615602E+00  0.51100000000E-03 0. -1.
</event>
<event>
 8    1  0.1166736E+005  0.1043930E+01  0.7957747E-01            NaN
         13   -1    0    0    0    0  0.00000000000E+00  0.00000000000E+00  0.74505805969E-08  0.10566000000E+00  0.10566000000E+00 0.  1.
     999900   -1    0    0    0    0 -0.00000000000E+00 -0.00000000000E+00 -0.74505805969E-08  0.93827000000E+00  0.93827000000E+00 0.  1.
     999902    2    1    2    0    0 -0.17469894832E-01  0.14451568026E-01 -0.61657713173E-02  0.10204340050E+01  0.10201634657E+01 0.  0.
     999903    2    3    3    0    0 -0.76198036116E-01 -0.28029832034E-01  0.10043552058E+00  0.13104235937E+00  0.22203467359E-01 0.  0.
         14    1    1    2    0    0  0.17469894832E-01 -0.14451568026E-01  0.61657713173E-02  0.23495994974E-01  0.00000000000E+00 0.  1.
     999901    1    3    3    0    0  0.58728141284E-01  0.42481400060E-01 -0.10660129190E+00  0.88939164566E+00  0.88000000000E+00 0.  1.
        -11    1    4    4    0    0 -0.43679148972E-01 -0.85219785001E-02  0.67278653216E-01  0.80667034605E-01  0.51100000000E-03 0.  1.
         11    1    4    4    0    0 -0.32518887144E-01 -0.19507853534E-01  0.33156867366E-01  0.50375324764E-01  0.51100000000E-03 0. -1.
</event>
<event>
 8    1  0.1166736E+005  0.1043930E+01  0.7957747E-01            NaN
         13   -1    0    0    0    0  0.00000000000E+00  0.00000000000E+00  0.74505805969E-08  0.10566000000E+00  0.10566000000E+00 0. -1.
     999900   -1    0    0    0    0 -0.00000000000E+00 -0.00000000000E+00 -0.74505805969E-08  0.93827000000E+00  0.93827000000E+00 0. -1.
     999902    2    1    2    0    0  0.25469734355E-01  0.20193970311E-01 -0.61742452369E-02  0.10108448808E+01  0.10103032951E+01 0.  0.
     999903    2    3    3    0    0  0.91350077725E-01  0.17256960586E-01  0.79939617206E-01  0.12418573384E+00  0.19725990504E-01 0.  0.
         14    1    1    2    0    0 -0.25469734355E-01 -0.20193970311E-01  0.61742452369E-02  0.33085119152E-01  0.00000000000E+00 0.  1.
     999901    1    3    3    0    0 -0.65880343370E-01  0.29370097256E-02 -0.86113862443E-01  0.88665914701E+00  0.88000000000E+00 0. -1.
        -11    1    4    4    0    0  0.40955584260E-01  0.76336341877E-02  0.48805655423E-01  0.64170751712E-01  0.51100000000E-03 0. -1.
         11    1    4    4    0    0  0.50394493465E-01  0.96233263979E-02  0.31133961782E-01  0.60014982128E-01  0.51100000000E-03 0.  1.
</event>
<event>
 8    1  0.1166736E+005  0.1043930E+01  0.7957747E-01            NaN
         13   -1    0    0    0    0  0.00000000000E+00  0.00000000000E+00  0.74505805969E-08  0.10566000000E+00  0.10566000000E+00 0. -1.
     999900   -1    0    0    0    0 -0.00000000000E+00 -0.00000000000E+00 -0.74505805969E-08  0.93827000000E+00  0.93827000000E+00 0. -1.
     999902    2    1    2    0    0  0.21841979068E-02  0.17068561590E-01  0.17074908155E-01  0.10196883209E+01  0.10194001240E+01 0.  0.
     999903    2    3    3    0    0 -0.10908683872E+00  0.68446001433E-01 -0.10873225658E-01  0.13075526210E+00  0.19847368466E-01 0.  0.
         14    1    1    2    0    0 -0.21841979068E-02 -0.17068561590E-01 -0.17074908155E-01  0.24241679062E-01  0.00000000000E+00 0.  1.
     999901    1    3    3    0    0  0.11127103663E+00 -0.51377439843E-01  0.27948133813E-01  0.88893305884E+00  0.88000000000E+00 0.  1.
        -11    1    4    4    0    0 -0.57461928978E-01  0.43019549054E-01 -0.13941580128E-01  0.73124439555E-01  0.51100000000E-03 0.  1.
         11    1    4    4    0    0 -0.51624909744E-01  0.25426452379E-01  0.30683544700E-02  0.57630822542E-01  0.51100000000E-03 0. -1.
</event>
<event>
 8    1  0.1166736E+005  0.1043930E+01  0.7957747E-01            NaN
         13   -1    0    0    0    0  0.00000000000E+00  0.00000000000E+00  0.74505805969E-08  0.10566000000E+00  0.10566000000E+00 0.  1.
     999900   -1    0    0    0    0 -0.00000000000E+00 -0.00000000000E+00 -0.74505805969E-08  0.93827000000E+00  0.93827000000E+00 0.  1.
     999902    2    1    2    0    0 -0.68442742514E-02 -0.16042863207E-01  0.15717120206E-01  0.10204513838E+01  0.10201812493E+01 0.  0.
     999903    2    3    3    0    0  0.76098530342E-01 -0.19859737772E-01  0.10423949173E+00  0.13212132826E+00  0.20119101384E-01 0.  0.
         14    1    1    2    0    0  0.68442742514E-02  0.16042863207E-01 -0.15717120206E-01  0.23478616175E-01  0.00000000000E+00 0. -1.
     999901    1    3    3    0    0 -0.82942804593E-01  0.38168745649E-02 -0.88522371520E-01  0.88833005557E+00  0.88000000000E+00 0.  1.
        -11    1    4    4    0    0  0.15117174864E-01 -0.18707734370E-02  0.92882619796E-02  0.17848296858E-01  0.51100000000E-03 0.  1.
         11    1    4    4    0    0  0.60981355478E-01 -0.17988964335E-01  0.94951229747E-01  0.11427303140E+00  0.51100000000E-03 0. -1.
</event>
<event>
 8    1  0.1166736E+005  0.1043930E+01  0.7957747E-01            NaN
         13   -1    0    0    0    0  0.00000000000E+00  0.00000000000E+00  0.74505805969E-08  0.10566000000E+00  0.10566000000E+00 0. -1.
     999900   -1    0    0    0    0 -0.00000000000E+00 -0.00000000000E+00 -0.74505805969E-08  0.93827000000E+00  0.93827000000E+00 0.  1.
     999902    2    1    2    0    0  0.15066015911E-01 -0.50438091119E-02  0.18050109735E-01  0.10198835594E+01  0.10196000409E+01 0.  0.
     999903    2    3    3    0    0  0.75397749776E-01  0.69472301577E-01  0.81406512691E-01  0.13241153014E+00  0.19863827612E-01 0.  0.
         14    1    1    2    0    0 -0.15066015911E-01  0.50438091119E-02 -0.18050109735E-01  0.24046440635E-01  0.00000000000E+00 0.  1.
     999901    1    3    3    0    0 -0.60331733865E-01 -0.74516110689E-01 -0.63356402956E-01  0.88747202923E+00  0.88000000000E+00 0.  1.
        -11    1    4    4    0    0  0.26263002963E-01  0.12556502834E-01  0.25655221730E-01  0.38805445637E-01  0.51100000000E-03 0. -1.
         11    1    4    4    0    0  0.49134746813E-01  0.56915798742E-01  0.55751290961E-01  0.93606084501E-01  0.51100000000E-03 0.  1.
</event>
<event>
 8    1  0.1166736E+005  0.1043930E+01  0.7957747E-01            NaN
         13   -1    0    0    0    0  0.00000000000E+00  0.00000000000E+00  0.74505805969E-08  0.10566000000E+00  0.10566000000E+00 0.  1.
     999900   -1    0    0    0    0 -0.00000000000E+00 -0.00000000000E+00 -0.74505805969E-08  0.93827000000E+00  0.93827000000E+00 0.  1.
     999902    2    1    2    0    0  0.59542730802E-02  0.16226490443E-02  0.23398947175E-01  0.10197308867E+01  0.10194437131E+01 0.  0.
     999903    2    3    3    0    0  0.12857604828E+00  0.10575980154E-01  0.83572395797E-02  0.13105630343E+00  0.21500224833E-01 0.  0.
         14    1    1    2    0    0 -0.59542730802E-02 -0.16226490443E-02 -0.23398947175E-01  0.24199113346E-01  0.00000000000E+00 0. -1.
     999901    1    3    3    0    0 -0.12262177520E+00 -0.89533311096E-02  0.15041707596E-01  0.88867458322E+00  0.88000000000E+00 0.  1.
        -11    1    4    4    0    0  0.46450512796E-01 -0.63840075970E-02  0.14514234058E-02  0.46912401803E-01  0.51100000000E-03 0. -1.
         11    1    4    4    0    0  0.82125535488E-01  0.16959987751E-01  0.69058161739E-02  0.84143901631E-01  0.51100000000E-03 0.  1.
</event>
<event>
 8    1  0.1166736E+005  0.1043930E+01  0.7957747E-01            NaN
         13   -1    0    0    0    0  0.00000000000E+00  0.00000000000E+00  0.74505805969E-08  0.10566000000E+00  0.10566000000E+00 0. -1.
     999900   -1    0    0    0    0 -0.00000000000E+00 -0.00000000000E+00 -0.74505805969E-08  0.93827000000E+00  0.93827000000E+00 0.  1.
     999902    2    1    2    0    0 -0.21370676729E-01  0.41906398087E-02  0.12406631408E-01  0.10188662455E+01  0.10185579191E+01 0.  0.
     999903    2    3    3    0    0 -0.50419915867E-01  0.11926450241E+00 -0.64609108361E-03  0.13080305761E+00  0.18515749909E-01 0.  0.
         14    1    1    2    0    0  0.21370676729E-01 -0.41906398087E-02 -0.12406631408E-01  0.25063754482E-01  0.00000000000E+00 0.  1.
     999901    1    3    3    0    0  0.29049239138E-01 -0.11507386261E+00  0.13052722491E-01  0.88806318791E+00  0.88000000000E+00 0. -1.
        -11    1    4    4    0    0 -0.30493995175E-01  0.90976286074E-01 -0.40003445691E-02  0.96035578028E-01  0.51100000000E-03 0. -1.
         11    1    4    4    0    0 -0.19925920692E-01  0.28288216341E-01  0.33542534855E-02  0.34767479584E-01  0.51100000000E-03 0.  1.
</event>
<event>
 8    1  0.1166736E+005  0.1043930E+01  0.7957747E-01            NaN
         13   -1    0    0    0    0  0.00000000000E+00  0.00000000000E+00  0.74505805969E-08  0.10566000000E+00  0.10566000000E+00 0.  1.
     999900   -1    0    0    0    0 -0.00000000000E+00 -0.00000000000E+00 -0.74505805969E-08  0.93827000000E+00  0.93827000000E+00 0. -1.
     999902    2    1    2    0    0 -0.19509447781E-01 -0.21709338514E-01  0.23480467704E-02  0.10146481412E+01  0.10142255288E+01 0.  0.
     999903    2    3    3    0    0  0.70306156225E-01  0.97697378564E-01 -0.30595544031E-02  0.12203733633E+00  0.19900181024E-01 0.  0.
         14    1    1    2    0    0  0.19509447781E-01  0.21709338514E-01 -0.23480467704E-02  0.29281858805E-01  0.00000000000E+00 0. -1.
     999901    1    3    3    0    0 -0.89815604005E-01 -0.11940671708E+00  0.54076011735E-02  0.89261080486E+00  0.88000000000E+00 0. -1.
        -11    1    4    4    0    0  0.47908468359E-02  0.12681761735E-01 -0.55967552050E-02  0.14675288206E-01  0.51100000000E-03 0.  1.
         11    1    4    4    0    0  0.65515309389E-01  0.85015616829E-01  0.25372008019E-02  0.10736204813E+00  0.51100000000E-03 0. -1.
</event>
<event>
 8    1  0.1166736E+005  0.1043930E+01  0.7957747E-01            NaN
         13   -1    0    0    0    0  0.00000000000E+00  0.00000000000E+00  0.74505805969E-08  0.10566000000E+00  0.10566000000E+00 0. -1.
     999900   -1    0    0    0    0 -0.00000000000E+00 -0.00000000000E+00 -0.74505805969E-08  0.93827000000E+00  0.93827000000E+00 0.  1.
     999902    2    1    2    0    0 -0.17834469814E-01  0.13768487886E-01 -0.84943407953E-02  0.10198511006E+01  0.10195668070E+01 0.  0.
     999903    2    3    3    0    0  0.11551740838E+00 -0.46549987362E-01 -0.20434868597E-01  0.12768316902E+00  0.19345150163E-01 0.  0.
         14    1    1    2    0    0  0.17834469814E-01 -0.13768487886E-01  0.84943407953E-02  0.24078899430E-01  0.00000000000E+00 0. -1.
     999901    1    3    3    0    0 -0.13335187820E+00  0.60318475248E-01  0.11940527801E-01  0.89216793155E+00  0.88000000000E+00 0.  1.
        -11    1    4    4    0    0  0.41438356110E-01 -0.21070932372E-01  0.86677817259E-03  0.46498752387E-01  0.51100000000E-03 0. -1.
         11    1    4    4    0    0  0.74079052272E-01 -0.25479054990E-01 -0.21301646769E-01  0.81184416637E-01  0.51100000000E-03 0.  1.
</event>
<event>
 8    1  0.1166736E+005  0.1043930E+01  0.7957747E-01            NaN
         13   -1    0    0    0    0  0.00000000000E+00  0.00000000000E+00  0.74505805969E-08  0.10566000000E+00  0.10566000000E+00 0. -1.
     999900   -1    0    0    0    0 -0.00000000000E+00 -0.00000000000E+00 -0.74505805969E-08  0.93827000000E+00  0.93827000000E+00 0. -1.
     999902    2    1    2    0    0  0.17201548221E-01  0.17571475555E-01  0.11443248458E-02  0.10193137555E+01  0.10190164732E+01 0.  0.
     999903    2    3    3    0    0 -0.33594471437E-02 -0.11588520073E+00 -0.48948974895E-01  0.12760596835E+00  0.21133276607E-01 0.  0.
         14    1    1    2    0    0 -0.17201548221E-01 -0.17571475555E-01 -0.11443248458E-02  0.24616244509E-01  0.00000000000E+00 0.  1.
     999901    1    3    3    0    0  0.20560995365E-01  0.13345667629E+00  0.50093299740E-01  0.89170778715E+00  0.88000000000E+00 0.  1.
        -11    1    4    4    0    0  0.65039758997E-02 -0.84813057637E-01 -0.32226450015E-01  0.90963518236E-01  0.51100000000E-03 0. -1.
         11    1    4    4    0    0 -0.98634230434E-02 -0.31072143096E-01 -0.16722524880E-01  0.36642450110E-01  0.51100000000E-03 0.  1.
</event>
<event>
 8    1  0.1166736E+005  0.1043930E+01  0.7957747E-01            NaN
         13   -1    0    0    0    0  0.00000000000E+00  0.00000000000E+00  0.74505805969E-08  0.10566000000E+00  0.10566000000E+00 0. -1.
     999900   -1    0    0    0    0 -0.00000000000E+00 -0.00000000000E+00 -0.74505805969E-08  0.93827000000E+00  0.93827000000E+00 0. -1.
     999902    2    1    2    0    0 -0.19581680088E-01 -0.98388489446E-02 -0.84202330401E-02  0.10204535124E+01  0.10201834274E+01 0.  0.
     999903    2    3    3    0    0 -0.42027732790E-01  0.65690480040E-01  0.10215715975E+00  0.13004020132E+00  0.19819161983E-01 0.  0.
         14    1    1    2    0    0  0.19581680088E-01  0.98388489446E-02  0.84202330401E-02  0.23476487559E-01  0.00000000000E+00 0.  1.
     999901    1    3    3    0    0  0.22446052702E-01 -0.75529328984E-01 -0.11057739279E+00  0.89041331112E+00  0.88000000000E+00 0. -1.
        -11    1    4    4    0    0 -0.33948886338E-01  0.63472987498E-01  0.93252895283E-01  0.11780369529E+00  0.51100000000E-03 0. -1.
         11    1    4    4    0    0 -0.80788464525E-02  0.22174925420E-02  0.89042644634E-02  0.12236506030E-01  0.51100000000E-03 0.  1.
</event>
<event>
 7    1  0.1166736E+005  0.1043930E+01  0.7957747E-01            NaN
         13   -1    0    0    0    0  0.00000000000E+00  0.00000000000E+00  0.74505805969E-08  0.10566000000E+00  0.10566000000E+00 0.  1.
     999900   -1    0    0    0    0 -0.00000000000E+00 -0.00000000000E+00 -0.74505805969E-08  0.93827000000E+00  0.93827000000E+00 0. -1.
     999902    2    1    2    0    0  0.89042799403E-03  0.14188164914E-01 -0.16389210584E-01  0.10222343067E+01  0.10220040482E+01 0.  0.
         14    1    1    2    0    0 -0.89042799403E-03 -0.14188164914E-01  0.16389210584E-01  0.21695693334E-01  0.00000000000E+00 0.  1.
     999901    1    3    3    0    0 -0.12300741525E+00 -0.11472706653E-01 -0.10420424398E-01  0.88869062809E+00  0.88000000000E+00 0. -1.
        -11    1    3    3    0    0  0.51282899534E-01  0.25888980023E-01  0.12105642678E-01  0.58711010696E-01  0.51100000000E-03 0. -1.
         11    1    3    3    0    0  0.72614943706E-01 -0.22810845566E-03 -0.18074428865E-01  0.74832667884E-01  0.51100000000E-03 0.  1.
</event>
<event>
 8    1  0.1166736E+005  0.1043930E+01  0.7957747E-01            NaN
         13   -1    0    0    0    0  0.00000000000E+00  0.00000000000E+00  0.74505805969E-08  0.10566000000E+00  0.10566000000E+00 0. -1.
     999900   -1    0    0    0    0 -0.00000000000E+00 -0.00000000000E+00 -0.74505805969E-08  0.93827000000E+00  0.93827000000E+00 0.  1.
     999902    2    1    2    0    0 -0.10767976392E-02 -0.22814234450E-01  0.67659132947E-02  0.10201092870E+01  0.10198311287E+01 0.  0.
     999903    2    3    3    0    0 -0.21996425496E-01  0.32658706610E-01 -0.12109203050E+00  0.12889520954E+00  0.20006532424E-01 0.  0.
         14    1    1    2    0    0  0.10767976392E-02  0.22814234450E-01 -0.67659132947E-02  0.23820713033E-01  0.00000000000E+00 0.  1.
     999901    1    3    3    0    0  0.20919627857E-01 -0.55472941060E-01  0.12785794379E+00  0.89121407743E+00  0.88000000000E+00 0. -1.
        -11    1    4    4    0    0 -0.41655580112E-02  0.89564557084E-03 -0.37046379918E-01  0.37294093910E-01  0.51100000000E-03 0.  1.
         11    1    4    4    0    0 -0.17830867485E-01  0.31763061039E-01 -0.84045650578E-01  0.91601115626E-01  0.51100000000E-03 0. -1.
</event>
<event>
 8    1  0.1166736E+005  0.1043930E+01  0.7957747E-01            NaN
         13   -1    0    0    0    0  0.00000000000E+00  0.00000000000E+00  0.74505805969E-08  0.10566000000E+00  0.10566000000E+00 0.  1.
     999900   -1    0    0    0    0 -0.00000000000E+00 -0.00000000000E+00 -0.74505805969E-08  0.93827000000E+00  0.93827000000E+00 0.  1.
     999902    2    1    2    0    0 -0.11449019981E-01  0.66790071608E-02  0.20062089081E-01  0.10198846966E+01  0.10196012053E+01 0.  0.
     999903    2    3    3    0    0 -0.10900669119E+00  0.19820714757E-01 -0.65625745557E-01  0.13025971459E+00  0.19635053040E-01 0.  0.
         14    1    1    2    0    0  0.11449019981E-01 -0.66790071608E-02 -0.20062089081E-01  0.24045303356E-01  0.00000000000E+00 0. -1.
     999901    1    3    3    0    0  0.97557671207E-01 -0.13141707596E-01  0.85687834638E-01  0.88962498205E+00  0.88000000000E+00 0. -1.
        -11    1    4    4    0    0 -0.74921051658E-01  0.17481700346E-01 -0.35601437324E-01  0.84773210916E-01  0.51100000000E-03 0. -1.
         11    1    4    4    0    0 -0.34085639530E-01  0.23390144112E-02 -0.30024308233E-01  0.45486503673E-01  0.51100000000E-03 0.  1.
</event>
<event>
 8    1  0.1166736E+005  0.1043930E+01  0.7957747E-01            NaN
         13   -1    0    0    0    0  0.00000000000E+00  0.00000000000E+00  0.74505805969E-08  0.10566000000E+00  0.10566000000E+00 0. -1.
     999900   -1    0    0    0    0 -0.00000000000E+00 -0.00000000000E+00 -0.74505805969E-08  0.93827000000E+00  0.93827000000E+00 0.  1.
     999902    2    1    2    0    0 -0.18392769014E-01 -0.17397751209E-01 -0.35308753794E-02  0.10183674731E+01  0.10180465940E+01 0.  0.
     999903    2    3    3    0    0  0.26266426747E-01  0.95106128971E-01  0.76703455969E-01  0.12646550836E+00  0.19365012429E-01 0.  0.
         14    1    1    2    0    0  0.18392769014E-01  0.17397751209E-01  0.35308753794E-02  0.25562526872E-01  0.00000000000E+00 0. -1.
     999901    1    3    3    0    0 -0.44659195761E-01 -0.11250388018E+00 -0.80234331349E-01  0.89190196476E+00  0.88000000000E+00 0. -1.
        -11    1    4    4    0    0  0.15422845832E-01  0.62428600084E-01  0.60939796914E-01  0.88595227021E-01  0.51100000000E-03 0.  1.
         11    1    4    4    0    0  0.10843580915E-01  0.32677528888E-01  0.15763659056E-01  0.37870281344E-01  0.51100000000E-03 0. -1.
</event>
<event>
 8    1  0.1166736E+005  0.1043930E+01  0.7957747E-01            NaN
         13   -1    0    0    0    0  0.00000000000E+00  0.00000000000E+00  0.74505805969E-08  0.10566000000E+00  0.10566000000E+00 0.  1.
     999900   -1    0    0    0    0 -0.00000000000E+00 -0.00000000000E+00 -0.74505805969E-08  0.93827000000E+00  0.93827000000E+00 0. -1.
     999902    2    1    2    0    0  0.43735948341E-02  0.10874511627E-01  0.20789445895E-01  0.10200640327E+01  0.10197848040E+01 0.  0.
     999903    2    3    3    0    0  0.10334126252E+00 -0.65558231637E-01 -0.36803277512E-01  0.12936010586E+00  0.20056357530E-01 0.  0.
         14    1    1    2    0    0 -0.43735948341E-02 -0.10874511627E-01 -0.20789445895E-01  0.23865967307E-01  0.00000000000E+00 0. -1.
     999901    1    3    3    0    0 -0.98967667685E-01  0.76432743264E-01  0.57592723407E-01  0.89070392684E+00  0.88000000000E+00 0.  1.
        -11    1    4    4    0    0  0.65448689304E-01 -0.41625783736E-01 -0.33271422081E-01  0.84400743193E-01  0.51100000000E-03 0.  1.
         11    1    4    4    0    0  0.37892573215E-01 -0.23932447901E-01 -0.35318554311E-02  0.44959362664E-01  0.51100000000E-03 0. -1.
</event>
<event>
 8    1  0.1166736E+005  0.1043930E+01  0.7957747E-01            NaN
         13   -1    0    0    0    0  0.00000000000E+00  0.00000000000E+00  0.74505805969E-08  0.10566000000E+00  0.10566000000E+00 0. -1.
     999900   -1    0    0    0    0 -0.00000000000E+00 -0.00000000000E+00 -0.74505805969E-08  0.93827000000E+00  0.93827000000E+00 0.  1.
     999902    2    1    2    0    0  0.45559569994E-02  0.11629987780E-01 -0.19195550771E-01  0.10210284164E+01  0.10207715438E+01 0.  0.
     999903    2    3    3    0    0 -0.81699173027E-01  0.41174623485E-01 -0.95004621422E-01  0.13307580051E+00  0.17697064646E-01 0.  0.
         14    1    1    2    0    0 -0.45559569994E-02 -0.11629987780E-01  0.19195550771E-01  0.22901583555E-01  0.00000000000E+00 0. -1.
     999901    1    3    3    0    0  0.86255130027E-01 -0.29544635705E-01  0.75809070651E-01  0.88795261594E+00  0.88000000000E+00 0. -1.
        -11    1    4    4    0    0 -0.38124690686E-01  0.12333794379E-01 -0.32438806357E-01  0.51557267214E-01  0.51100000000E-03 0.  1.
         11    1    4    4    0    0 -0.43574482341E-01  0.28840829106E-01 -0.62565815065E-01  0.81518533295E-01  0.51100000000E-03 0. -1.
</event>
<event>
 8    1  0.1166736E+005  0.1043930E+01  0.7957747E-01            NaN
         13   -1    0    0    0    0  0.00000000000E+00  0.00000000000E+00  0.74505805969E-08  0.10566000000E+00  0.10566000000E+00 0.  1.
     999900   -1    0    0    0    0 -0.00000000000E+00 -0.00000000000E+00 -0.74505805969E-08  0.93827000000E+00  0.93827000000E+00 0. -1.
     999902    2    1    2    0    0  0.12376445180E-01  0.14574548758E-01  0.14581844590E-01  0.10198837101E+01  0.10196001952E+01 0.  0.
     999903    2    3    3    0    0 -0.50438004111E-01 -0.11271208686E+00 -0.24996649754E-01  0.12763150367E+00  0.20419633832E-01 0.  0.
         14    1    1    2    0    0 -0.12376445180E-01 -0.14574548758E-01 -0.14581844590E-01  0.24046289911E-01  0.00000000000E+00 0. -1.
     999901    1    3    3    0    0  0.62814449291E-01  0.12728663562E+00  0.39578494344E-01  0.89225220642E+00  0.88000000000E+00 0.  1.
        -11    1    4    4    0    0 -0.25693441729E-01 -0.36224738534E-01 -0.43263223048E-02  0.44624688407E-01  0.51100000000E-03 0.  1.
         11    1    4    4    0    0 -0.24744562382E-01 -0.76487348330E-01 -0.20670327449E-01  0.83006815262E-01  0.51100000000E-03 0. -1.
</event>
<event>
 8    1  0.1166736E+005  0.1043930E+01  0.7957747E-01            NaN
         13   -1    0    0    0    0  0.00000000000E+00  0.00000000000E+00  0.74505805969E-08  0.10566000000E+00  0.10566000000E+00 0. -1.
     999900   -1    0    0    0    0 -0.00000000000E+00 -0.00000000000E+00 -0.74505805969E-08  0.93827000000E+00  0.93827000000E+00 0. -1.
     999902    2    1    2    0    0  0.21112466389E-01  0.12143448090E-01  0.35291596523E-03  0.10195717546E+01  0.10192807458E+01 0.  0.
     999903    2    3    3    0    0 -0.11073595734E+00 -0.25477204034E-01  0.52918481007E-01  0.12740447269E+00  0.22803373806E-01 0.  0.
         14    1    1    2    0    0 -0.21112466389E-01 -0.12143448090E-01 -0.35291596523E-03  0.24358245385E-01  0.00000000000E+00 0.  1.
     999901    1    3    3    0    0  0.13184842373E+00  0.37620652123E-01 -0.52565565042E-01  0.89216728192E+00  0.88000000000E+00 0.  1.
        -11    1    4    4    0    0 -0.32491980189E-01  0.15708618081E-03  0.22946322206E-01  0.39781255340E-01  0.51100000000E-03 0.  1.
         11    1    4    4    0    0 -0.78243977149E-01 -0.25634290215E-01  0.29972158802E-01  0.87623217352E-01  0.51100000000E-03 0. -1.
</event>
<event>
 8    1  0.1166736E+005  0.1043930E+01  0.7957747E-01            NaN
         13   -1    0    0    0    0  0.00000000000E+00  0.00000000000E+00  0.74505805969E-08  0.10566000000E+00  0.10566000000E+00 0.  1.
     999900   -1    0    0    0    0 -0.00000000000E+00 -0.00000000000E+00 -0.74505805969E-08  0.93827000000E+00  0.93827000000E+00 0. -1.
     999902    2    1    2    0    0 -0.79003865797E-02 -0.21610910745E-01 -0.58477776047E-02  0.10201888106E+01  0.10199125282E+01 0.  0.
     999903    2    3    3    0    0 -0.96016367795E-01 -0.10887921019E-01 -0.88048590463E-01  0.13191161158E+00  0.17619003357E-01 0.  0.
         14    1    1    2    0    0  0.79003865797E-02  0.21610910745E-01  0.58477776047E-02  0.23741189403E-01  0.00000000000E+00 0. -1.
     999901    1    3    3    0    0  0.88115981215E-01 -0.10722989726E-01  0.82200812858E-01  0.88827719901E+00  0.88000000000E+00 0.  1.
        -11    1    4    4    0    0 -0.18463263623E-01  0.46778240271E-02 -0.19099036806E-01  0.26977925590E-01  0.51100000000E-03 0. -1.
         11    1    4    4    0    0 -0.77553104172E-01 -0.15565745047E-01 -0.68949553657E-01  0.10493368599E+00  0.51100000000E-03 0.  1.
</event>
<event>
 8    1  0.1166736E+005  0.1043930E+01  0.7957747E-01            NaN
         13   -1    0    0    0    0  0.00000000000E+00  0.00000000000E+00  0.74505805969E-08  0.10566000000E+00  0.10566000000E+00 0. -1.
     999900   -1    0    0    0    0 -0.00000000000E+00 -0.00000000000E+00 -0.74505805969E-08  0.93827000000E+00  0.93827000000E+00 0. -1.
     999902    2    1    2    0    0  0.65433104754E-03  0.21948608190E-01 -0.33284762780E-02  0.10217208058E+01  0.10214793962E+01 0.  0.
     999903    2    3    3    0    0 -0.77520375561E-01  0.33734384453E-01  0.99560733253E-01  0.13220611866E+00  0.20462181819E-01 0.  0.
         14    1    1    2    0    0 -0.65433104754E-03 -0.21948608190E-01  0.33284762780E-02  0.22209194153E-01  0.00000000000E+00 0.  1.
     999901    1    3    3    0    0  0.78174706608E-01 -0.11785776263E-01 -0.10288920953E+00  0.88951468718E+00  0.88000000000E+00 0. -1.
        -11    1    4    4    0    0 -0.57226888969E-01  0.27206500056E-01  0.86406324586E-01  0.10715140930E+00  0.51100000000E-03 0.  1.
         11    1    4    4    0    0 -0.20293486591E-01  0.65278843968E-02  0.13154408668E-01  0.25054709360E-01  0.51100000000E-03 0. -1.
</event>
<event>
 8    1  0.1166736E+005  0.1043930E+01  0.7957747E-01            NaN
         13   -1    0    0    0    0  0.00000000000E+00  0.00000000000E+00  0.74505805969E-08  0.10566000000E+00  0.10566000000E+00 0. -1.
     999900   -1    0    0    0    0 -0.00000000000E+00 -0.00000000000E+00 -0.74505805969E-08  0.93827000000E+00  0.93827000000E+00 0. -1.
     999902    2    1    2    0    0  0.68909430455E-03 -0.23288403220E-01 -0.56661058829E-02  0.10199523160E+01  0.10196704357E+01 0.  0.
     999903    2    3    3    0    0  0.56774458878E-01  0.38854148550E-01  0.10717648104E+00  0.12880658474E+00  0.19270551239E-01 0.  0.
         14    1    1    2    0    0 -0.68909430455E-03  0.23288403220E-01  0.56661058829E-02  0.23977684029E-01  0.00000000000E+00 0. -1.
     999901    1    3    3    0    0 -0.56085364574E-01 -0.62142551770E-01 -0.11284258692E+00  0.89114573123E+00  0.88000000000E+00 0. -1.
        -11    1    4    4    0    0  0.39223916805E-01  0.36657983078E-01  0.78281731009E-01  0.94924253505E-01  0.51100000000E-03 0. -1.
         11    1    4    4    0    0  0.17550542074E-01  0.21961654724E-02  0.28894750031E-01  0.33882331239E-01  0.51100000000E-03 0.  1.
</event>
<event>
 8    1  0.1166736E+005  0.1043930E+01  0.7957747E-01            NaN
         13   -1    0    0    0    0  0.00000000000E+00  0.00000000000E+00  0.74505805969E-08  0.10566000000E+00  0.10566000000E+00 0.  1.
     999900   -1    0    0    0    0 -0.00000000000E+00 -0.00000000000E+00 -0.74505805969E-08  0.93827000000E+00  0.93827000000E+00 0.  1.
     999902    2    1    2    0    0  0.15133725025E-01 -0.14707023451E-01 -0.10371944360E-01  0.10204161019E+01  0.10201451454E+01 0.  0.
     999903    2    3    3    0    0  0.72133919355E-01  0.95420273914E-01 -0.50061256333E-01  0.13083626558E+00  0.17426072725E-01 0.  0.
         14    1    1    2    0    0 -0.15133725025E-01  0.14707023451E-01  0.10371944360E-01  0.23513898054E-01  0.00000000000E+00 0. -1.
     999901    1    3    3    0    0 -0.57000194330E-01 -0.11012729736E+00  0.39689311974E-01  0.88957983636E+00  0.88000000000E+00 0.  1.
        -11    1    4    4    0    0  0.15163169007E-01  0.30427860903E-01 -0.91292746705E-02  0.35204846122E-01  0.51100000000E-03 0. -1.
         11    1    4    4    0    0  0.56970750348E-01  0.64992413012E-01 -0.40931981663E-01  0.95631419461E-01  0.51100000000E-03 0.  1.
</event>
<event>
 8    1  0.1166736E+005  0.1043930E+01  0.7957747E-01            NaN
         13   -1    0    0    0    0  0.00000000000E+00  0.00000000000E+00  0.74505805969E-08  0.10566000000E+00  0.10566000000E+00 0. -1.
     999900   -1    0    0    0    0 -0.00000000000E+00 -0.00000000000E+00 -0.74505805969E-08  0.93827000000E+00  0.93827000000E+00 0.  1.
     999902    2    1    2    0    0  0.37065606978E-02 -0.97891331949E-02 -0.21408702042E-01  0.10200993843E+01  0.10198209920E+01 0.  0.
     999903    2    3    3    0    0 -0.86978817636E-01 -0.36250450447E-01  0.85286966761E-01  0.12863541707E+00  0.19844242239E-01 0.  0.
         14    1    1    2    0    0 -0.37065606978E-02  0.97891331949E-02  0.21408702042E-01  0.23830615688E-01  0.00000000000E+00 0. -1.
     999901    1    3    3    0    0  0.90685378333E-01  0.26461317252E-01 -0.10669566880E+00  0.89146396724E+00  0.88000000000E+00 0.  1.
        -11    1    4    4    0    0 -0.20439423418E-01 -0.84179839011E-02  0.32272532304E-01  0.39120454304E-01  0.51100000000E-03 0.  1.
         11    1    4    4    0    0 -0.66539394218E-01 -0.27832466546E-01  0.53014434457E-01  0.89514962764E-01  0.51100000000E-03 0. -1.
</event>
<event>
 8    1  0.1166736E+005  0.1043930E+01  0.7957747E-01            NaN
         13   -1    0    0    0    0  0.00000000000E+00  0.00000000000E+00  0.74505805969E-08  0.10566000000E+00  0.10566000000E+00 0. -1.
     999900   -1    0    0    0    0 -0.00000000000E+00 -0.00000000000E+00 -0.74505805969E-08  0.93827000000E+00  0.93827000000E+00 0.  1.
     999902    2    1    2    0    0  0.66243604912E-02  0.16964870766E-01  0.14860499416E-01  0.10204241830E+01  0.10201534148E+01 0.  0.
     999903    2    3    3    0    0 -0.63341918828E-01  0.19551811367E-01  0.11270832789E+00  0.13223716997E+00  0.19723841853E-01 0.  0.
         14    1    1    2    0    0 -0.66243604912E-02 -0.16964870766E-01 -0.14860499416E-01  0.23505817044E-01  0.00000000000E+00 0.  1.
     999901    1    3    3    0    0  0.69966279319E-01 -0.25869406011E-02 -0.97847828471E-01  0.88818701299E+00  0.88000000000E+00 0. -1.
        -11    1    4    4    0    0 -0.21360109427E-01 -0.28715174350E-02  0.36002579208E-01  0.41963635660E-01  0.51100000000E-03 0.  1.
         11    1    4    4    0    0 -0.41981809400E-01  0.22423328802E-01  0.76705748680E-01  0.90273534309E-01  0.51100000000E-03 0. -1.
</event>
<event>
 8    1  0.1166736E+005  0.1043930E+01  0.7957747E-01            NaN
         13   -1    0    0    0    0  0.00000000000E+00  0.00000000000E+00  0.74505805969E-08  0.10566000000E+00  0.10566000000E+00 0.  1.
     999900   -1    0    0    0    0 -0.00000000000E+00 -0.00000000000E+00 -0.74505805969E-08  0.93827000000E+00  0.93827000000E+00 0.  1.
     999902    2    1    2    0    0  0.15624134105E-01 -0.94738381417E-02  0.14909332782E-01  0.10203470532E+01  0.10200744843E+01 0.  0.
     999903    2    3    3    0    0 -0.91397678752E-01  0.79526936659E-01 -0.36167466367E-01  0.12794375550E+00  0.19581869466E-01 0.  0.
         14    1    1    2    0    0 -0.15624134105E-01  0.94738381417E-02 -0.14909332782E-01  0.23582946798E-01  0.00000000000E+00 0. -1.
     999901    1    3    3    0    0  0.10702181286E+00 -0.89000774801E-01  0.51076799149E-01  0.89240329770E+00  0.88000000000E+00 0.  1.
        -11    1    4    4    0    0 -0.28624047640E-01  0.28134471200E-01 -0.21379027500E-01  0.45477560521E-01  0.51100000000E-03 0.  1.
         11    1    4    4    0    0 -0.62773631112E-01  0.51392465459E-01 -0.14788438867E-01  0.82466194977E-01  0.51100000000E-03 0. -1.
</event>
<event>
 8    1  0.1166736E+005  0.1043930E+01  0.7957747E-01            NaN
         13   -1    0    0    0    0  0.00000000000E+00  0.00000000000E+00  0.74505805969E-08  0.10566000000E+00  0.10566000000E+00 0. -1.
     999900   -1    0    0    0    0 -0.00000000000E+00 -0.00000000000E+00 -0.74505805969E-08  0.93827000000E+00  0.93827000000E+00 0.  1.
     999902    2    1    2    0    0 -0.28812156346E-02  0.17726851725E-01  0.15164146644E-01  0.10204248087E+01  0.10201540551E+01 0.  0.
     999903    2    3    3    0    0  0.12463828564E+00  0.20149268448E-01  0.29506258476E-01  0.13111452116E+00  0.19485971977E-01 0.  0.
         14    1    1    2    0    0  0.28812156346E-02 -0.17726851725E-01 -0.15164146644E-01  0.23505191321E-01  0.00000000000E+00 0.  1.
     999901    1    3    3    0    0 -0.12751950128E+00 -0.24224167231E-02 -0.14342111832E-01  0.88931028752E+00  0.88000000000E+00 0.  1.
        -11    1    4    4    0    0  0.92644980553E-01  0.20566779533E-01  0.15399822351E-01  0.96143125035E-01  0.51100000000E-03 0. -1.
         11    1    4    4    0    0  0.31993305088E-01 -0.41751108497E-03  0.14106436125E-01  0.34971396128E-01  0.51100000000E-03 0.  1.
</event>
<event>
 8    1  0.1166736E+005  0.1043930E+01  0.7957747E-01            NaN
         13   -1    0    0    0    0  0.00000000000E+00  0.00000000000E+00  0.74505805969E-08  0.10566000000E+00  0.10566000000E+00 0. -1.
     999900   -1    0    0    0    0 -0.00000000000E+00 -0.00000000000E+00 -0.74505805969E-08  0.93827000000E+00  0.93827000000E+00 0.  1.
     999902    2    1    2    0    0  0.65885447093E-02 -0.22451098413E-01  0.32395058895E-02  0.10203089259E+01  0.10200354647E+01 0.  0.
     999903    2    3    3    0    0 -0.69224269907E-01  0.23334039401E-01 -0.10478624214E+00  0.12929073087E+00  0.19986485624E-01 0.  0.
         14    1    1    2    0    0 -0.65885447093E-02  0.22451098413E-01 -0.32395058895E-02  0.23621074060E-01  0.00000000000E+00 0. -1.
     999901    1    3    3    0    0  0.75812814616E-01 -0.45785137815E-01  0.10802574803E+00  0.89101819507E+00  0.88000000000E+00 0. -1.
        -11    1    4    4    0    0 -0.55647378558E-01  0.24295727206E-01 -0.74712196853E-01  0.96276095582E-01  0.51100000000E-03 0.  1.
         11    1    4    4    0    0 -0.13576891348E-01 -0.96168780412E-03 -0.30074045292E-01  0.33014635290E-01  0.51100000000E-03 0. -1.
</event>
<event>
 8    1  0.1166736E+005  0.1043930E+01  0.7957747E-01            NaN
         13   -1    0    0    0    0  0.00000000000E+00  0.00000000000E+00  0.74505805969E-08  0.10566000000E+00  0.10566000000E+00 0.  1.
     999900   -1    0    0    0    0 -0.00000000000E+00 -0.00000000000E+00 -0.74505805969E-08  0.93827000000E+00  0.93827000000E+00 0.  1.
     999902    2    1    2    0    0  0.11574929759E-01 -0.19950665971E-01 -0.86653646657E-02  0.10192906693E+01  0.10189928223E+01 0.  0.
     999903    2    3    3    0    0  0.11501134020E+00  0.30202873090E-01 -0.52156596125E-01  0.13074919269E+00  0.15336849484E-01 0.  0.
         14    1    1    2    0    0 -0.11574929759E-01  0.19950665971E-01  0.86653646657E-02  0.24639330681E-01  0.00000000000E+00 0. -1.
     999901    1    3    3    0    0 -0.10343641044E+00 -0.50153539061E-01  0.43491231460E-01  0.88854147663E+00  0.88000000000E+00 0. -1.
        -11    1    4    4    0    0  0.10061025123E+00  0.30699441055E-01 -0.42825101317E-01  0.11357433142E+00  0.51100000000E-03 0.  1.
         11    1    4    4    0    0  0.14401088967E-01 -0.49656796570E-03 -0.93314948085E-02  0.17174861267E-01  0.51100000000E-03 0. -1.
</event>
<event>
 8    1  0.1166736E+005  0.1043930E+01  0.7957747E-01            NaN
         13   -1    0    0    0    0  0.00000000000E+00  0.00000000000E+00  0.74505805969E-08  0.10566000000E+00  0.10566000000E+00 0. -1.
     999900   -1    0    0    0    0 -0.00000000000E+00 -0.00000000000E+00 -0.74505805969E-08  0.93827000000E+00  0.93827000000E+00 0. -1.
     999902    2    1    2    0    0 -0.16208995375E-01  0.12123547662E-01 -0.84556584633E-02  0.10219934985E+01  0.10217580442E+01 0.  0.
     999903    2    3    3    0    0 -0.66622482336E-01  0.28599669659E-01  0.10930949682E+00  0.13256580942E+00  0.19199777990E-01 0.  0.
         14    1    1    2    0    0  0.16208995375E-01 -0.12123547662E-01  0.84556584633E-02  0.21936501522E-01  0.00000000000E+00 0. -1.
     999901    1    3    3    0    0  0.50413486961E-01 -0.16476121997E-01 -0.11776515528E+00  0.88942768906E+00  0.88000000000E+00 0. -1.
        -11    1    4    4    0    0 -0.94177908458E-02  0.95693595121E-02  0.11587551512E-01  0.17742601189E-01  0.51100000000E-03 0.  1.
         11    1    4    4    0    0 -0.57204691491E-01  0.19030310147E-01  0.97721945308E-01  0.11482320823E+00  0.51100000000E-03 0. -1.
</event>
<event>
 8    1  0.1166736E+005  0.1043930E+01  0.7957747E-01            NaN
         13   -1    0    0    0    0  0.00000000000E+00  0.00000000000E+00  0.74505805969E-08  0.10566000000E+00  0.10566000000E+00 0.  1.
     999900   -1    0    0    0    0 -0.00000000000E+00 -0.00000000000E+00 -0.74505805969E-08  0.93827000000E+00  0.93827000000E+00 0. -1.
     999902    2    1    2    0    0 -0.14535936592E-01  0.16387614667E-01 -0.76264660315E-04  0.10220244486E+01  0.10217896654E+01 0.  0.
     999903    2    3    3    0    0  0.29510750720E-01 -0.73642372832E-01 -0.10164751131E+00  0.13053006976E+00  0.20292832993E-01 0.  0.
         14    1    1    2    0    0  0.14535936592E-01 -0.16387614667E-01  0.76264660315E-04  0.21905551429E-01  0.00000000000E+00 0. -1.
     999901    1    3    3    0    0 -0.44046687312E-01  0.90029987499E-01  0.10157124665E+00  0.89149437881E+00  0.88000000000E+00 0.  1.
        -11    1    4    4    0    0  0.21439146154E-01 -0.52177324321E-01 -0.56238871452E-01  0.79656650346E-01  0.51100000000E-03 0.  1.
         11    1    4    4    0    0  0.80716045661E-02 -0.21465048511E-01 -0.45408639858E-01  0.50873419411E-01  0.51100000000E-03 0. -1.
</event>
<event>
 8    1  0.1166736E+005  0.1043930E+01  0.7957747E-01            NaN
         13   -1    0    0    0    0  0.00000000000E+00  0.00000000000E+00  0.74505805969E-08  0.10566000000E+00  0.10566000000E+00 0. -1.
     999900   -1    0    0    0    0 -0.00000000000E+00 -0.00000000000E+00 -0.74505805969E-08  0.93827000000E+00  0.93827000000E+00 0. -1.
     999902    2    1    2    0    0 -0.82934258261E-02 -0.39822311378E-02  0.21339023308E-01  0.10206922507E+01  0.10204276935E+01 0.  0.
     999903    2    3    3    0    0 -0.89021955548E-01  0.72903237093E-05  0.97449525869E-01  0.13371659129E+00  0.21419805569E-01 0.  0.
         14    1    1    2    0    0  0.82934258261E-02  0.39822311378E-02 -0.21339023308E-01  0.23237749299E-01  0.00000000000E+00 0.  1.
     999901    1    3    3    0    0  0.80728529722E-01 -0.39895214615E-02 -0.76110502561E-01  0.88697565941E+00  0.88000000000E+00 0. -1.
        -11    1    4    4    0    0 -0.48655621151E-01 -0.10252999239E-02  0.37527717483E-01  0.61457395080E-01  0.51100000000E-03 0.  1.
         11    1    4    4    0    0 -0.40366334397E-01  0.10325902477E-02  0.59921808386E-01  0.72259196207E-01  0.51100000000E-03 0. -1.
</event>
<event>
 8    1  0.1166736E+005  0.1043930E+01  0.7957747E-01            NaN
         13   -1    0    0    0    0  0.00000000000E+00  0.00000000000E+00  0.74505805969E-08  0.10566000000E+00  0.10566000000E+00 0.  1.
     999900   -1    0    0    0    0 -0.00000000000E+00 -0.00000000000E+00 -0.74505805969E-08  0.93827000000E+00  0.93827000000E+00 0. -1.
     999902    2    1    2    0    0  0.13331486724E-01  0.93671304569E-03  0.19619877240E-01  0.10201908856E+01  0.10199146521E+01 0.  0.
     999903    2    3    3    0    0 -0.70132772223E-01 -0.10590439280E+00  0.17350091748E-01  0.12980531948E+00  0.20348197197E-01 0.  0.
         14    1    1    2    0    0 -0.13331486724E-01 -0.93671304569E-03 -0.19619877240E-01  0.23739114400E-01  0.00000000000E+00 0. -1.
     999901    1    3    3    0    0  0.83464258947E-01  0.10684110584E+00  0.22697854918E-02  0.89038556611E+00  0.88000000000E+00 0. -1.
        -11    1    4    4    0    0  0.47889601127E-03 -0.74122687966E-02  0.12848842271E-02  0.75553370924E-02  0.51100000000E-03 0. -1.
         11    1    4    4    0    0 -0.70611668234E-01 -0.98492124002E-01  0.16065207521E-01  0.12224998239E+00  0.51100000000E-03 0.  1.
</event>
<event>
 8    1  0.1166736E+005  0.1043930E+01  0.7957747E-01            NaN
         13   -1    0    0    0    0  0.00000000000E+00  0.00000000000E+00  0.74505805969E-08  0.10566000000E+00  0.10566000000E+00 0.  1.
     999900   -1    0    0    0    0 -0.00000000000E+00 -0.00000000000E+00 -0.74505805969E-08  0.93827000000E+00  0.93827000000E+00 0.  1.
     999902    2    1    2    0    0  0.18916552039E-01 -0.13810466204E-01 -0.17156860473E-02  0.10204457820E+01  0.10201755170E+01 0.  0.
     999903    2    3    3    0    0  0.74717027264E-01  0.10488702574E+00 -0.11042520573E-01  0.13067627391E+00  0.19246531378E-01 0.  0.
         14    1    1    2    0    0 -0.18916552039E-01  0.13810466204E-01  0.17156860473E-02  0.23484218029E-01  0.00000000000E+00 0.  1.
     999901    1    3    3    0    0 -0.55800475226E-01 -0.11869749195E+00  0.93268345258E-02  0.88976950806E+00  0.88000000000E+00 0. -1.
        -11    1    4    4    0    0  0.20418322491E-01  0.44504559176E-01 -0.55972464437E-02  0.49286448132E-01  0.51100000000E-03 0. -1.
         11    1    4    4    0    0  0.54298704774E-01  0.60382466569E-01 -0.54452741294E-02  0.81389825780E-01  0.51100000000E-03 0.  1.
</event>
<event>
 8    1  0.1166736E+005  0.1043930E+01  0.7957747E-01            NaN
         13   -1    0    0    0    0  0.00000000000E+00  0.00000000000E+00  0.74505805969E-08  0.10566000000E+00  0.10566000000E+00 0. -1.
     999900   -1    0    0    0    0 -0.00000000000E+00 -0.00000000000E+00 -0.74505805969E-08  0.93827000000E+00  0.93827000000E+00 0. -1.
     999902    2    1    2    0    0 -0.21540718815E-01 -0.82123756286E-02 -0.84583049100E-03  0.10208613826E+01  0.10206007061E+01 0.  0.
     999903    2    3    3    0    0 -0.87880140497E-03 -0.71051889747E-01  0.10882115543E+00  0.13159057615E+00  0.20612921524E-01 0.  0.
         14    1    1    2    0    0  0.21540718815E-01  0.82123756286E-02  0.84583049100E-03  0.23068617421E-01  0.00000000000E+00 0.  1.
     999901    1    3    3    0    0 -0.20661917410E-01  0.62839514118E-01 -0.10966698592E+00  0.88927080643E+00  0.88000000000E+00 0. -1.
        -11    1    4    4    0    0 -0.88580750180E-02 -0.57945123560E-01  0.85218629918E-01  0.10343393468E+00  0.51100000000E-03 0.  1.
         11    1    4    4    0    0  0.79792736130E-02 -0.13106766186E-01  0.23602525512E-01  0.28156641469E-01  0.51100000000E-03 0. -1.
</event>
<event>
 8    1  0.1166736E+005  0.1043930E+01  0.7957747E-01            NaN
         13   -1    0    0    0    0  0.00000000000E+00  0.00000000000E+00  0.74505805969E-08  0.10566000000E+00  0.10566000000E+00 0. -1.
     999900   -1    0    0    0    0 -0.00000000000E+00 -0.00000000000E+00 -0.74505805969E-08  0.93827000000E+00  0.93827000000E+00 0. -1.
     999902    2    1    2    0    0  0.12885434167E-01 -0.22520713747E-02 -0.18921748850E-01  0.10209269824E+01  0.10206678032E+01 0.  0.
     999903    2    3    3    0    0 -0.68638488434E-01 -0.81834742433E-01  0.69780808764E-01  0.12916036763E+00  0.20121434620E-01 0.  0.
         14    1    1    2    0    0 -0.12885434167E-01  0.22520713747E-02  0.18921748850E-01  0.23003017600E-01  0.00000000000E+00 0. -1.
     999901    1    3    3    0    0  0.81523922602E-01  0.79582671059E-01 -0.88702557614E-01  0.89176661477E+00  0.88000000000E+00 0.  1.
        -11    1    4    4    0    0 -0.28758095838E-01 -0.35296516021E-01  0.41707078974E-01  0.61746365699E-01  0.51100000000E-03 0. -1.
         11    1    4    4    0    0 -0.39880392596E-01 -0.46538226412E-01  0.28073729790E-01  0.67414001933E-01  0.51100000000E-03 0.  1.
</event>
<event>
 8    1  0.1166736E+005  0.1043930E+01  0.7957747E-01            NaN
         13   -1    0    0    0    0  0.00000000000E+00  0.00000000000E+00  0.74505805969E-08  0.10566000000E+00  0.10566000000E+00 0. -1.
     999900   -1    0    0    0    0 -0.00000000000E+00 -0.00000000000E+00 -0.74505805969E-08  0.93827000000E+00  0.93827000000E+00 0. -1.
     999902    2    1    2    0    0  0.89184955867E-02  0.45910152091E-02 -0.20933219106E-01  0.10207175756E+01  0.10204536013E+01 0.  0.
     999903    2    3    3    0    0 -0.63369682648E-01 -0.76798494201E-01  0.78666295798E-01  0.12843404649E+00  0.19829090083E-01 0.  0.
         14    1    1    2    0    0 -0.89184955867E-02 -0.45910152091E-02  0.20933219106E-01  0.23212424396E-01  0.00000000000E+00 0. -1.
     999901    1    3    3    0    0  0.72288178235E-01  0.81389509410E-01 -0.99599514904E-01  0.89228352911E+00  0.88000000000E+00 0. -1.
        -11    1    4    4    0    0 -0.22312300919E-01 -0.37286788142E-01  0.24874424031E-01  0.50071363414E-01  0.51100000000E-03 0.  1.
         11    1    4    4    0    0 -0.41057381729E-01 -0.39511706059E-01  0.53791871767E-01  0.78362683079E-01  0.51100000000E-03 0. -1.
</event>
<event>
 8    1  0.1166736E+005  0.1043930E+01  0.7957747E-01            NaN
         13   -1    0    0    0    0  0.00000000000E+00  0.00000000000E+00  0.74505805969E-08  0.10566000000E+00  0.10566000000E+00 0. -1.
     999900   -1    0    0    0    0 -0.00000000000E+00 -0.00000000000E+00 -0.74505805969E-08  0.93827000000E+00  0.93827000000E+00 0. -1.
     999902    2    1    2    0    0 -0.13104989443E-01 -0.18638877713E-01  0.39929317985E-02  0.10207979440E+01  0.10205358154E+01 0.  0.
     999903    2    3    3    0    0 -0.92060925695E-01 -0.33553111915E-01  0.87886270187E-01  0.13316369134E+00  0.20187789528E-01 0.  0.
         14    1    1    2    0    0  0.13104989443E-01  0.18638877713E-01 -0.39929317985E-02  0.23132056006E-01  0.00000000000E+00 0.  1.
     999901    1    3    3    0    0  0.78955936252E-01  0.14914234202E-01 -0.83893338388E-01  0.88763425265E+00  0.88000000000E+00 0. -1.
        -11    1    4    4    0    0 -0.16325800991E-01 -0.10364842363E-01  0.27216435205E-01  0.33390974850E-01  0.51100000000E-03 0.  1.
         11    1    4    4    0    0 -0.75735124705E-01 -0.23188269551E-01  0.60669834982E-01  0.99772716494E-01  0.51100000000E-03 0. -1.
</event>
<event>
 8    1  0.1166736E+005  0.1043930E+01  0.7957747E-01            NaN
         13   -1    0    0    0    0  0.00000000000E+00  0.00000000000E+00  0.74505805969E-08  0.10566000000E+00  0.10566000000E+00 0.  1.
     999900   -1    0    0    0    0 -0.00000000000E+00 -0.00000000000E+00 -0.74505805969E-08  0.93827000000E+00  0.93827000000E+00 0. -1.
     999902    2    1    2    0    0  0.17445581089E-01  0.15014271920E-01 -0.24959823465E-02  0.10207781839E+01  0.10205156021E+01 0.  0.
     999903    2    3    3    0    0  0.58674595297E-01  0.63553492045E-01  0.98843714846E-01  0.13267592530E+00  0.18736774149E-01 0.  0.
         14    1    1    2    0    0 -0.17445581089E-01 -0.15014271920E-01  0.24959823465E-02  0.23151816099E-01  0.00000000000E+00 0. -1.
     999901    1    3    3    0    0 -0.41229014207E-01 -0.48539220125E-01 -0.10133969719E+00  0.88810225860E+00  0.88000000000E+00 0. -1.
        -11    1    4    4    0    0  0.17896050632E-01  0.16251440143E-01  0.16272421112E-01  0.29144995193E-01  0.51100000000E-03 0. -1.
         11    1    4    4    0    0  0.40778544665E-01  0.47302051902E-01  0.82571293734E-01  0.10353093011E+00  0.51100000000E-03 0.  1.
</event>
<event>
 8    1  0.1166736E+005  0.1043930E+01  0.7957747E-01            NaN
         13   -1    0    0    0    0  0.00000000000E+00  0.00000000000E+00  0.74505805969E-08  0.10566000000E+00  0.10566000000E+00 0.  1.
     999900   -1    0    0    0    0 -0.00000000000E+00 -0.00000000000E+00 -0.74505805969E-08  0.93827000000E+00  0.93827000000E+00 0.  1.
     999902    2    1    2    0    0  0.17721955480E-01 -0.11135432309E-01  0.73337471509E-02  0.10217523219E+01  0.10215116044E+01 0.  0.
     999903    2    3    3    0    0  0.95391249747E-01 -0.92244744398E-01 -0.80282343588E-02  0.13448278548E+00  0.20312155131E-01 0.  0.
         14    1    1    2    0    0 -0.17721955480E-01  0.11135432309E-01 -0.73337471509E-02  0.22177678102E-01  0.00000000000E+00 0.  1.
     999901    1    3    3    0    0 -0.77669294267E-01  0.81109312089E-01  0.15361981510E-01  0.88726953642E+00  0.88000000000E+00 0. -1.
        -11    1    4    4    0    0  0.68368680806E-01 -0.67327243706E-01 -0.14839025551E-01  0.97096303022E-01  0.51100000000E-03 0. -1.
         11    1    4    4    0    0  0.27022568941E-01 -0.24917500692E-01  0.68107911920E-02  0.37386482458E-01  0.51100000000E-03 0.  1.
</event>
<event>
 8    1  0.1166736E+005  0.1043930E+01  0.7957747E-01            NaN
         13   -1    0    0    0    0  0.00000000000E+00  0.00000000000E+00  0.74505805969E-08  0.10566000000E+00  0.10566000000E+00 0. -1.
     999900   -1    0    0    0    0 -0.00000000000E+00 -0.00000000000E+00 -0.74505805969E-08  0.93827000000E+00  0.93827000000E+00 0. -1.
     999902    2    1    2    0    0  0.83617363607E-02  0.15804975157E-01 -0.15807337676E-01  0.10200639614E+01  0.10197847310E+01 0.  0.
     999903    2    3    3    0    0  0.15611526124E-01 -0.11742965056E+00 -0.48110602699E-01  0.12941951725E+00  0.20033441435E-01 0.  0.
         14    1    1    2    0    0 -0.83617363607E-02 -0.15804975157E-01  0.15807337676E-01  0.23866038613E-01  0.00000000000E+00 0. -1.
     999901    1    3    3    0    0 -0.72497897631E-02  0.13323462571E+00  0.32303265023E-01  0.89064444414E+00  0.88000000000E+00 0.  1.
        -11    1    4    4    0    0  0.19777202769E-01 -0.95107346512E-01 -0.42438096781E-01  0.10600848216E+00  0.51100000000E-03 0. -1.
         11    1    4    4    0    0 -0.41656766454E-02 -0.22322304044E-01 -0.56725059175E-02  0.23411035093E-01  0.51100000000E-03 0.  1.
</event>
<event>
 8    1  0.1166736E+005  0.1043930E+01  0.7957747E-01            NaN
         13   -1    0    0    0    0  0.00000000000E+00  0.00000000000E+00  0.74505805969E-08  0.10566000000E+00  0.10566000000E+00 0.  1.
     999900   -1    0    0    0    0 -0.00000000000E+00 -0.00000000000E+00 -0.74505805969E-08  0.93827000000E+00  0.93827000000E+00 0. -1.
     999902    2    1    2    0    0  0.12218640644E-01  0.15531865959E-01  0.12273614334E-01  0.10206668178E+01  0.10204016744E+01 0.  0.
     999903    2    3    3    0    0 -0.10993071776E+00 -0.12701412223E-01  0.65374845810E-01  0.13019653496E+00  0.20764842206E-01 0.  0.
         14    1    1    2    0    0 -0.12218640644E-01 -0.15531865959E-01 -0.12273614334E-01  0.23263182246E-01  0.00000000000E+00 0.  1.
     999901    1    3    3    0    0  0.12214935840E+00  0.28233278182E-01 -0.53101231476E-01  0.89047028279E+00  0.88000000000E+00 0.  1.
        -11    1    4    4    0    0 -0.18098947240E-01  0.51103026390E-02  0.78912556649E-02  0.20401473506E-01  0.51100000000E-03 0. -1.
         11    1    4    4    0    0 -0.91831770518E-01 -0.17811714862E-01  0.57483590146E-01  0.10979506145E+00  0.51100000000E-03 0.  1.
</event>
<event>
 8    1  0.1166736E+005  0.1043930E+01  0.7957747E-01            NaN
         13   -1    0    0    0    0  0.00000000000E+00  0.00000000000E+00  0.74505805969E-08  0.10566000000E+00  0.10566000000E+00 0. -1.
     999900   -1    0    0    0    0 -0.00000000000E+00 -0.00000000000E+00 -0.74505805969E-08  0.93827000000E+00  0.93827000000E+00 0. -1.
     999902    2    1    2    0    0 -0.16216286002E-01  0.15437258697E-01  0.66739893938E-02  0.10205672300E+01  0.10202997853E+01 0.  0.
     999903    2    3    3    0    0  0.58130047788E-01  0.59610635221E-01  0.99803722951E-01  0.13143742406E+00  0.19557173623E-01 0.  0.
         14    1    1    2    0    0  0.16216286002E-01 -0.15437258697E-01 -0.66739893938E-02  0.23362770003E-01  0.00000000000E+00 0.  1.
     999901    1    3    3    0    0 -0.74346333790E-01 -0.44173376524E-01 -0.93129733557E-01  0.88912980594E+00  0.88000000000E+00 0. -1.
        -11    1    4    4    0    0  0.13099051550E-01  0.15799239469E-01  0.38630552293E-01  0.43746792006E-01  0.51100000000E-03 0. -1.
         11    1    4    4    0    0  0.45030996238E-01  0.43811395752E-01  0.61173170658E-01  0.87690632049E-01  0.51100000000E-03 0.  1.
</event>
<event>
 8    1  0.1166736E+005  0.1043930E+01  0.7957747E-01            NaN
         13   -1    0    0    0    0  0.00000000000E+00  0.00000000000E+00  0.74505805969E-08  0.10566000000E+00  0.10566000000E+00 0.  1.
     999900   -1    0    0    0    0 -0.00000000000E+00 -0.00000000000E+00 -0.74505805969E-08  0.93827000000E+00  0.93827000000E+00 0. -1.
     999902    2    1    2    0    0  0.17497942091E-01  0.15867210038E-01 -0.26387166479E-02  0.10201621823E+01  0.10198852725E+01 0.  0.
     999903    2    3    3    0    0  0.40035119732E-01 -0.11551007469E+00 -0.36904888222E-01  0.12946465463E+00  0.21301123368E-01 0.  0.
         14    1    1    2    0    0 -0.17497942091E-01 -0.15867210038E-01  0.26387166479E-02  0.23767817681E-01  0.00000000000E+00 0. -1.
     999901    1    3    3    0    0 -0.22537177641E-01  0.13137728473E+00  0.34266171574E-01  0.89069752769E+00  0.88000000000E+00 0. -1.
        -11    1    4    4    0    0 -0.60206370868E-03 -0.11767256427E-01  0.84571081108E-03  0.11824007455E-01  0.51100000000E-03 0. -1.
         11    1    4    4    0    0  0.40637183440E-01 -0.10374281826E+00 -0.37750599033E-01  0.11764064717E+00  0.51100000000E-03 0.  1.
</event>
<event>
 8    1  0.1166736E+005  0.1043930E+01  0.7957747E-01            NaN
         13   -1    0    0    0    0  0.00000000000E+00  0.00000000000E+00  0.74505805969E-08  0.10566000000E+00  0.10566000000E+00 0. -1.
     999900   -1    0    0    0    0 -0.00000000000E+00 -0.00000000000E+00 -0.74505805969E-08  0.93827000000E+00  0.93827000000E+00 0. -1.
     999902    2    1    2    0    0 -0.20758781257E-01 -0.44463021430E-02 -0.10307963628E-01  0.10203301967E+01  0.10200572335E+01 0.  0.
     999903    2    3    3    0    0  0.33407010742E-01 -0.80871986695E-01 -0.95765389160E-01  0.13124201779E+00  0.19928644563E-01 0.  0.
         14    1    1    2    0    0  0.20758781257E-01  0.44463021430E-02  0.10307963628E-01  0.23599803308E-01  0.00000000000E+00 0. -1.
     999901    1    3    3    0    0 -0.54165791999E-01  0.76425684552E-01  0.85457425532E-01  0.88908817890E+00  0.88000000000E+00 0.  1.
        -11    1    4    4    0    0  0.33457723853E-01 -0.58930939886E-01 -0.70972730888E-01  0.98130854537E-01  0.51100000000E-03 0. -1.
         11    1    4    4    0    0 -0.50713111142E-04 -0.21941046809E-01 -0.24792658272E-01  0.33111163255E-01  0.51100000000E-03 0.  1.
</event>
<event>
 8    1  0.1166736E+005  0.1043930E+01  0.7957747E-01            NaN
         13   -1    0    0    0    0  0.00000000000E+00  0.00000000000E+00  0.74505805969E-08  0.10566000000E+00  0.10566000000E+00 0.  1.
     999900   -1    0    0    0    0 -0.00000000000E+00 -0.00000000000E+00 -0.74505805969E-08  0.93827000000E+00  0.93827000000E+00 0. -1.
     999902    2    1    2    0    0  0.12255730564E-01  0.46698700137E-02 -0.28201582160E-01  0.10128279124E+01  0.10123502557E+01 0.  0.
     999903    2    3    3    0    0 -0.50636228582E-01 -0.92246032685E-01 -0.63164751239E-01  0.12458779062E+00  0.21423668730E-01 0.  0.
         14    1    1    2    0    0 -0.12255730564E-01 -0.46698700137E-02  0.28201582160E-01  0.31102087613E-01  0.00000000000E+00 0.  1.
     999901    1    3    3    0    0  0.62891959146E-01  0.96915902698E-01  0.34963169080E-01  0.88824012177E+00  0.88000000000E+00 0.  1.
        -11    1    4    4    0    0 -0.43488568790E-01 -0.60874251203E-01 -0.39178512036E-01  0.84452039651E-01  0.51100000000E-03 0.  1.
         11    1    4    4    0    0 -0.71476597918E-02 -0.31371781482E-01 -0.23986239203E-01  0.40135750971E-01  0.51100000000E-03 0. -1.
</event>
<event>
 8    1  0.1166736E+005  0.1043930E+01  0.7957747E-01            NaN
         13   -1    0    0    0    0  0.00000000000E+00  0.00000000000E+00  0.74505805969E-08  0.10566000000E+00  0.10566000000E+00 0.  1.
     999900   -1    0    0    0    0 -0.00000000000E+00 -0.00000000000E+00 -0.74505805969E-08  0.93827000000E+00  0.93827000000E+00 0. -1.
     999902    2    1    2    0    0  0.14772861070E-01 -0.15551140004E-01 -0.10546442033E-01  0.10200280583E+01  0.10197479771E+01 0.  0.
     999903    2    3    3    0    0  0.68036563259E-01 -0.84938258981E-01  0.71954750960E-01  0.13185125092E+00  0.19073133028E-01 0.  0.
         14    1    1    2    0    0 -0.14772861070E-01  0.15551140004E-01  0.10546442033E-01  0.23901941745E-01  0.00000000000E+00 0.  1.
     999901    1    3    3    0    0 -0.53263702189E-01  0.69387118977E-01 -0.82501192993E-01  0.88817680734E+00  0.88000000000E+00 0.  1.
        -11    1    4    4    0    0  0.45956816823E-01 -0.42554908002E-01  0.42932684665E-01  0.75936985330E-01  0.51100000000E-03 0. -1.
         11    1    4    4    0    0  0.22079746436E-01 -0.42383350979E-01  0.29022066295E-01  0.55914265585E-01  0.51100000000E-03 0.  1.
</event>
<event>
 8    1  0.1166736E+005  0.1043930E+01  0.7957747E-01            NaN
         13   -1    0    0    0    0  0.00000000000E+00  0.00000000000E+00  0.74505805969E-08  0.10566000000E+00  0.10566000000E+00 0. -1.
     999900   -1    0    0    0    0 -0.00000000000E+00 -0.00000000000E+00 -0.74505805969E-08  0.93827000000E+00  0.93827000000E+00 0.  1.
     999902    2    1    2    0    0 -0.16760867282E-01  0.44911209331E-02 -0.16316362568E-01  0.10201115087E+01  0.10198334029E+01 0.  0.
     999903    2    3    3    0    0 -0.10108036505E+00 -0.42691230668E-01  0.67227974589E-01  0.13088959701E+00  0.23931248638E-01 0.  0.
         14    1    1    2    0    0  0.16760867282E-01 -0.44911209331E-02  0.16316362568E-01  0.23818491277E-01  0.00000000000E+00 0. -1.
     999901    1    3    3    0    0  0.84319497773E-01  0.47182351602E-01 -0.83544337157E-01  0.88922191172E+00  0.88000000000E+00 0.  1.
        -11    1    4    4    0    0 -0.33526318915E-01 -0.22368606385E-01  0.34782451211E-01  0.53239540238E-01  0.51100000000E-03 0. -1.
         11    1    4    4    0    0 -0.67554046140E-01 -0.20322624283E-01  0.32445523378E-01  0.77650056767E-01  0.51100000000E-03 0.  1.
</event>
<event>
 8    1  0.1166736E+005  0.1043930E+01  0.7957747E-01            NaN
         13   -1    0    0    0    0  0.00000000000E+00  0.00000000000E+00  0.74505805969E-08  0.10566000000E+00  0.10566000000E+00 0. -1.
     999900   -1    0    0    0    0 -0.00000000000E+00 -0.00000000000E+00 -0.74505805969E-08  0.93827000000E+00  0.93827000000E+00 0.  1.
     999902    2    1    2    0    0 -0.16792349694E-02  0.23967253842E-01 -0.12996399717E-03  0.10199036399E+01  0.10196206004E+01 0.  0.
     999903    2    3    3    0    0 -0.31958240840E-01 -0.19267911096E-01 -0.12265017745E+00  0.12984897849E+00  0.20618186867E-01 0.  0.
         14    1    1    2    0    0  0.16792349694E-02 -0.23967253842E-01  0.12996399717E-03  0.24026360054E-01  0.00000000000E+00 0.  1.
     999901    1    3    3    0    0  0.30279005870E-01  0.43235164937E-01  0.12252021345E+00  0.89005466146E+00  0.88000000000E+00 0. -1.
        -11    1    4    4    0    0 -0.11399224642E-01 -0.18875247885E-01 -0.62129128621E-01  0.65928044483E-01  0.51100000000E-03 0. -1.
         11    1    4    4    0    0 -0.20559016197E-01 -0.39266321073E-03 -0.60521048829E-01  0.63920934002E-01  0.51100000000E-03 0.  1.
</event>
<event>
 8    1  0.1166736E+005  0.1043930E+01  0.7957747E-01            NaN
         13   -1    0    0    0    0  0.00000000000E+00  0.00000000000E+00  0.74505805969E-08  0.10566000000E+00  0.10566000000E+00 0.  1.
     999900   -1    0    0    0    0 -0.00000000000E+00 -0.00000000000E+00 -0.74505805969E-08  0.93827000000E+00  0.93827000000E+00 0.  1.
     999902    2    1    2    0    0 -0.10213939821E-01  0.13762686755E-01  0.17870535503E-01  0.10191693023E+01  0.10188684775E+01 0.  0.
     999903    2    3    3    0    0 -0.63910059626E-01  0.41903240619E-01 -0.10191040826E+00  0.12898806311E+00  0.20293147043E-01 0.  0.
         14    1    1    2    0    0  0.10213939821E-01 -0.13762686755E-01 -0.17870535503E-01  0.24760697740E-01  0.00000000000E+00 0. -1.
     999901    1    3    3    0    0  0.53696119804E-01 -0.28140553864E-01  0.11978094376E+00  0.89018123915E+00  0.88000000000E+00 0. -1.
        -11    1    4    4    0    0 -0.51275757541E-01  0.42148425623E-01 -0.83939074185E-01  0.10701272069E+00  0.51100000000E-03 0. -1.
         11    1    4    4    0    0 -0.12634302085E-01 -0.24518500430E-03 -0.17971334072E-01  0.21975342413E-01  0.51100000000E-03 0.  1.
</event>
<event>
 8    1  0.1166736E+005  0.1043930E+01  0.7957747E-01            NaN
         13   -1    0    0    0    0  0.00000000000E+00  0.00000000000E+00  0.74505805969E-08  0.10566000000E+00  0.10566000000E+00 0. -1.
     999900   -1    0    0    0    0 -0.00000000000E+00 -0.00000000000E+00 -0.74505805969E-08  0.93827000000E+00  0.93827000000E+00 0.  1.
     999902    2    1    2    0    0  0.18306312134E-01  0.20004758896E-01  0.12086999068E-02  0.10167864483E+01  0.10164240794E+01 0.  0.
     999903    2    3    3    0    0 -0.18869829232E-01  0.52742326523E-01 -0.11340974462E+00  0.12797195606E+00  0.19422355684E-01 0.  0.
         14    1    1    2    0    0 -0.18306312134E-01 -0.20004758896E-01 -0.12086999068E-02  0.27143551681E-01  0.00000000000E+00 0. -1.
     999901    1    3    3    0    0  0.37176141366E-01 -0.32737567627E-01  0.11461844453E+00  0.88881449226E+00  0.88000000000E+00 0. -1.
        -11    1    4    4    0    0 -0.24071826526E-02  0.29707892620E-01 -0.45507509631E-01  0.54401727602E-01  0.51100000000E-03 0.  1.
         11    1    4    4    0    0 -0.16462646579E-01  0.23034433903E-01 -0.67902234992E-01  0.73570228460E-01  0.51100000000E-03 0. -1.
</event>
<event>
 8    1  0.1166736E+005  0.1043930E+01  0.7957747E-01            NaN
         13   -1    0    0    0    0  0.00000000000E+00  0.00000000000E+00  0.74505805969E-08  0.10566000000E+00  0.10566000000E+00 0.  1.
     999900   -1    0    0    0    0 -0.00000000000E+00 -0.00000000000E+00 -0.74505805969E-08  0.93827000000E+00  0.93827000000E+00 0. -1.
     999902    2    1    2    0    0  0.21195145533E-01  0.13989371484E-01  0.16839229335E-01  0.10134587619E+01  0.10130005753E+01 0.  0.
     999903    2    3    3    0    0 -0.10160298145E+00 -0.22735904125E-01  0.62752550712E-01  0.12298913356E+00  0.18664328973E-01 0.  0.
         14    1    1    2    0    0 -0.21195145533E-01 -0.13989371484E-01 -0.16839229335E-01  0.30471238132E-01  0.00000000000E+00 0.  1.
     999901    1    3    3    0    0  0.12279812699E+00  0.36725275609E-01 -0.45913321377E-01  0.89046962831E+00  0.88000000000E+00 0. -1.
        -11    1    4    4    0    0 -0.76576164772E-01 -0.89960567149E-02  0.48319845945E-01  0.90993992553E-01  0.51100000000E-03 0.  1.
         11    1    4    4    0    0 -0.25026816683E-01 -0.13739847410E-01  0.14432704767E-01  0.31995141006E-01  0.51100000000E-03 0. -1.
</event>
<event>
 8    1  0.1166736E+005  0.1043930E+01  0.7957747E-01            NaN
         13   -1    0    0    0    0  0.00000000000E+00  0.00000000000E+00  0.74505805969E-08  0.10566000000E+00  0.10566000000E+00 0. -1.
     999900   -1    0    0    0    0 -0.00000000000E+00 -0.00000000000E+00 -0.74505805969E-08  0.93827000000E+00  0.93827000000E+00 0. -1.
     999902    2    1    2    0    0  0.16002630921E-01 -0.17113444287E-01  0.37543823529E-02  0.10202013347E+01  0.10199253471E+01 0.  0.
     999903    2    3    3    0    0  0.10451828383E+00  0.72558575732E-01 -0.23041879401E-01  0.13082282603E+00  0.19871211252E-01 0.  0.
         14    1    1    2    0    0 -0.16002630921E-01  0.17113444287E-01 -0.37543823529E-02  0.23728665335E-01  0.00000000000E+00 0.  1.
     999901    1    3    3    0    0 -0.88515652907E-01 -0.89672020019E-01  0.26796261754E-01  0.88937850864E+00  0.88000000000E+00 0.  1.
        -11    1    4    4    0    0  0.34540706884E-01  0.35249278865E-01 -0.61027509319E-02  0.49730039036E-01  0.51100000000E-03 0.  1.
         11    1    4    4    0    0  0.69977576943E-01  0.37309296867E-01 -0.16939128469E-01  0.81092786990E-01  0.51100000000E-03 0. -1.
</event>
<event>
 8    1  0.1166736E+005  0.1043930E+01  0.7957747E-01            NaN
         13   -1    0    0    0    0  0.00000000000E+00  0.00000000000E+00  0.74505805969E-08  0.10566000000E+00  0.10566000000E+00 0.  1.
     999900   -1    0    0    0    0 -0.00000000000E+00 -0.00000000000E+00 -0.74505805969E-08  0.93827000000E+00  0.93827000000E+00 0.  1.
     999902    2    1    2    0    0 -0.19770160520E-01  0.52283856742E-02  0.11843653532E-01  0.10202980853E+01  0.10200243700E+01 0.  0.
     999903    2    3    3    0    0  0.10086300793E+00  0.71493402635E-01  0.33975474220E-01  0.12932489193E+00  0.16909814774E-01 0.  0.
         14    1    1    2    0    0  0.19770160520E-01 -0.52283856742E-02 -0.11843653532E-01  0.23631914707E-01  0.00000000000E+00 0.  1.
     999901    1    3    3    0    0 -0.12063316845E+00 -0.66265016961E-01 -0.22131820687E-01  0.89097319336E+00  0.88000000000E+00 0.  1.
        -11    1    4    4    0    0  0.62906187165E-01  0.42537528693E-01  0.29133582445E-01  0.81336685930E-01  0.51100000000E-03 0.  1.
         11    1    4    4    0    0  0.37956820764E-01  0.28955873942E-01  0.48418917741E-02  0.47988206001E-01  0.51100000000E-03 0. -1.
</event>
<event>
 8    1  0.1166736E+005  0.1043930E+01  0.7957747E-01            NaN
         13   -1    0    0    0    0  0.00000000000E+00  0.00000000000E+00  0.74505805969E-08  0.10566000000E+00  0.10566000000E+00 0.  1.
     999900   -1    0    0    0    0 -0.00000000000E+00 -0.00000000000E+00 -0.74505805969E-08  0.93827000000E+00  0.93827000000E+00 0. -1.
     999902    2    1    2    0    0  0.22546873962E-01 -0.69417932191E-02 -0.26350958537E-02  0.10201919767E+01  0.10199157689E+01 0.  0.
     999903    2    3    3    0    0  0.50453825352E-01  0.45491939154E-01  0.11018514184E+00  0.13100330144E+00  0.20149304876E-01 0.  0.
         14    1    1    2    0    0 -0.22546873962E-01  0.69417932191E-02  0.26350958537E-02  0.23738023269E-01  0.00000000000E+00 0. -1.
     999901    1    3    3    0    0 -0.27906951390E-01 -0.52433732373E-01 -0.11282023769E+00  0.88918867529E+00  0.88000000000E+00 0. -1.
        -11    1    4    4    0    0  0.22393066554E-01  0.33590324374E-01  0.63206387929E-01  0.75000452780E-01  0.51100000000E-03 0. -1.
         11    1    4    4    0    0  0.28060758798E-01  0.11901614780E-01  0.46978753908E-01  0.56002848664E-01  0.51100000000E-03 0.  1.
</event>
<event>
 8    1  0.1166736E+005  0.1043930E+01  0.7957747E-01            NaN
         13   -1    0    0    0    0  0.00000000000E+00  0.00000000000E+00  0.74505805969E-08  0.10566000000E+00  0.10566000000E+00 0.  1.
     999900   -1    0    0    0    0 -0.00000000000E+00 -0.00000000000E+00 -0.74505805969E-08  0.93827000000E+00  0.93827000000E+00 0.  1.
     999902    2    1    2    0    0 -0.72460026327E-02  0.51244956160E-05  0.22110114242E-01  0.10206628186E+01  0.10203975830E+01 0.  0.
     999903    2    3    3    0    0 -0.44547038098E-02  0.54517992778E-01  0.12024231323E+00  0.13352733137E+00  0.19475071495E-01 0.  0.
         14    1    1    2    0    0  0.72460026327E-02 -0.51244956160E-05 -0.22110114242E-01  0.23267181441E-01  0.00000000000E+00 0. -1.
     999901    1    3    3    0    0 -0.27912988229E-02 -0.54512868282E-01 -0.98132198983E-01  0.88713548719E+00  0.88000000000E+00 0.  1.
        -11    1    4    4    0    0 -0.12073994038E-01  0.37617767622E-01  0.80893935206E-01  0.90027593809E-01  0.51100000000E-03 0. -1.
         11    1    4    4    0    0  0.76192902283E-02  0.16900225156E-01  0.39348378019E-01  0.43499737558E-01  0.51100000000E-03 0.  1.
</event>
<event>
 8    1  0.1166736E+005  0.1043930E+01  0.7957747E-01            NaN
         13   -1    0    0    0    0  0.00000000000E+00  0.00000000000E+00  0.74505805969E-08  0.10566000000E+00  0.10566000000E+00 0.  1.
     999900   -1    0    0    0    0 -0.00000000000E+00 -0.00000000000E+00 -0.74505805969E-08  0.93827000000E+00  0.93827000000E+00 0. -1.
     999902    2    1    2    0    0  0.47561767034E-02  0.19267242736E-01 -0.32274862980E-03  0.10240817752E+01  0.10238894131E+01 0.  0.
     999903    2    3    3    0    0  0.12218988484E+00  0.53639543220E-01  0.13343252885E-01  0.13551051167E+00  0.19429045778E-01 0.  0.
         14    1    1    2    0    0 -0.47561767034E-02 -0.19267242736E-01  0.32274862980E-03  0.19848224761E-01  0.00000000000E+00 0. -1.
     999901    1    3    3    0    0 -0.11743370814E+00 -0.34372300484E-01 -0.13666001515E-01  0.88857126357E+00  0.88000000000E+00 0. -1.
        -11    1    4    4    0    0  0.53500162243E-01  0.27235890560E-01  0.15071304705E-01  0.61898840386E-01  0.51100000000E-03 0.  1.
         11    1    4    4    0    0  0.68689722600E-01  0.26403652660E-01 -0.17280518200E-02  0.73611671281E-01  0.51100000000E-03 0. -1.
</event>
<event>
 8    1  0.1166736E+005  0.1043930E+01  0.7957747E-01            NaN
         13   -1    0    0    0    0  0.00000000000E+00  0.00000000000E+00  0.74505805969E-08  0.10566000000E+00  0.10566000000E+00 0. -1.
     999900   -1    0    0    0    0 -0.00000000000E+00 -0.00000000000E+00 -0.74505805969E-08  0.93827000000E+00  0.93827000000E+00 0.  1.
     999902    2    1    2    0    0  0.24894758351E-01  0.57725561291E-02 -0.25362480785E-02  0.10182491910E+01  0.10179252973E+01 0.  0.
     999903    2    3    3    0    0  0.72144369989E-01  0.67680566526E-01  0.83057980808E-01  0.13067299731E+00  0.19782185007E-01 0.  0.
         14    1    1    2    0    0 -0.24894758351E-01 -0.57725561291E-02  0.25362480785E-02  0.25680809020E-01  0.00000000000E+00 0.  1.
     999901    1    3    3    0    0 -0.47249611638E-01 -0.61908010396E-01 -0.85594228886E-01  0.88757619367E+00  0.88000000000E+00 0.  1.
        -11    1    4    4    0    0  0.60921007190E-01  0.56302757616E-01  0.59044035020E-01  0.10182253594E+00  0.51100000000E-03 0. -1.
         11    1    4    4    0    0  0.11223362799E-01  0.11377808909E-01  0.24013945788E-01  0.28850461373E-01  0.51100000000E-03 0.  1.
</event>
<event>
 8    1  0.1166736E+005  0.1043930E+01  0.7957747E-01            NaN
         13   -1    0    0    0    0  0.00000000000E+00  0.00000000000E+00  0.74505805969E-08  0.10566000000E+00  0.10566000000E+00 0. -1.
     999900   -1    0    0    0    0 -0.00000000000E+00 -0.00000000000E+00 -0.74505805969E-08  0.93827000000E+00  0.93827000000E+00 0.  1.
     999902    2    1    2    0    0 -0.19800296686E-01  0.34288801187E-02  0.13439093461E-01  0.10197552570E+01  0.10194686684E+01 0.  0.
     999903    2    3    3    0    0 -0.94471990095E-01  0.82328653126E-01 -0.35642549152E-01  0.13171807102E+00  0.19398321723E-01 0.  0.
         14    1    1    2    0    0  0.19800296686E-01 -0.34288801187E-02 -0.13439093461E-01  0.24174743035E-01  0.00000000000E+00 0. -1.
     999901    1    3    3    0    0  0.74671693409E-01 -0.78899773007E-01  0.49081642613E-01  0.88803718594E+00  0.88000000000E+00 0. -1.
        -11    1    4    4    0    0 -0.15103984635E-01  0.17954908670E-01 -0.13770191617E-01  0.27210078930E-01  0.51100000000E-03 0. -1.
         11    1    4    4    0    0 -0.79368005460E-01  0.64373744455E-01 -0.21872357535E-01  0.10450799209E+00  0.51100000000E-03 0.  1.
</event>
<event>
 8    1  0.1166736E+005  0.1043930E+01  0.7957747E-01            NaN
         13   -1    0    0    0    0  0.00000000000E+00  0.00000000000E+00  0.74505805969E-08  0.10566000000E+00  0.10566000000E+00 0.  1.
     999900   -1    0    0    0    0 -0.00000000000E+00 -0.00000000000E+00 -0.74505805969E-08  0.93827000000E+00  0.93827000000E+00 0.  1.
     999902    2    1    2    0    0  0.14218994639E-01 -0.11155127859E-01 -0.14096450284E-01  0.10210099957E+01  0.10207527050E+01 0.  0.
     999903    2    3    3    0    0 -0.95916954592E-01 -0.81558009632E-01 -0.31153882572E-01  0.13119122255E+00  0.19718046577E-01 0.  0.
         14    1    1    2    0    0 -0.14218994639E-01  0.11155127859E-01  0.14096450284E-01  0.22920004291E-01  0.00000000000E+00 0.  1.
     999901    1    3    3    0    0  0.11013594923E+00  0.70402881772E-01  0.17057432288E-01  0.88981877316E+00  0.88000000000E+00 0.  1.
        -11    1    4    4    0    0 -0.58706238138E-01 -0.39142833312E-01 -0.11818140288E-01  0.71543786291E-01  0.51100000000E-03 0. -1.
         11    1    4    4    0    0 -0.37210716454E-01 -0.42415176319E-01 -0.19335742284E-01  0.59647436256E-01  0.51100000000E-03 0.  1.
</event>
<event>
 8    1  0.1166736E+005  0.1043930E+01  0.7957747E-01            NaN
         13   -1    0    0    0    0  0.00000000000E+00  0.00000000000E+00  0.74505805969E-08  0.10566000000E+00  0.10566000000E+00 0.  1.
     999900   -1    0    0    0    0 -0.00000000000E+00 -0.00000000000E+00 -0.74505805969E-08  0.93827000000E+00  0.93827000000E+00 0.  1.
     999902    2    1    2    0    0 -0.25222157858E-01 -0.10744841491E-03 -0.87386119172E-03  0.10186924798E+01  0.10183798093E+01 0.  0.
     999903    2    3    3    0    0  0.92179218269E-01 -0.73137026064E-01 -0.42894851082E-01  0.12690653805E+00  0.20476041793E-01 0.  0.
         14    1    1    2    0    0  0.25222157858E-01  0.10744841491E-03  0.87386119172E-03  0.25237520194E-01  0.00000000000E+00 0. -1.
     999901    1    3    3    0    0 -0.11740137613E+00  0.73029577649E-01  0.42020989891E-01  0.89178594176E+00  0.88000000000E+00 0.  1.
        -11    1    4    4    0    0  0.78005182132E-01 -0.65691127970E-01 -0.43509281680E-01  0.11087583797E+00  0.51100000000E-03 0. -1.
         11    1    4    4    0    0  0.14174036137E-01 -0.74458980946E-02  0.61443059721E-03  0.16030700072E-01  0.51100000000E-03 0.  1.
</event>
<event>
 8    1  0.1166736E+005  0.1043930E+01  0.7957747E-01            NaN
         13   -1    0    0    0    0  0.00000000000E+00  0.00000000000E+00  0.74505805969E-08  0.10566000000E+00  0.10566000000E+00 0.  1.
     999900   -1    0    0    0    0 -0.00000000000E+00 -0.00000000000E+00 -0.74505805969E-08  0.93827000000E+00  0.93827000000E+00 0.  1.
     999902    2    1    2    0    0  0.71387957683E-02 -0.22264787728E-01 -0.25491848329E-02  0.10204101888E+01  0.10201390943E+01 0.  0.
     999903    2    3    3    0    0  0.58223636538E-01 -0.42169146279E-01  0.10849235219E+00  0.13173923312E+00  0.20406036105E-01 0.  0.
         14    1    1    2    0    0 -0.71387957683E-02  0.22264787728E-01  0.25491848329E-02  0.23519811243E-01  0.00000000000E+00 0.  1.
     999901    1    3    3    0    0 -0.51084840770E-01  0.19904358550E-01 -0.11104153702E+00  0.88867095564E+00  0.88000000000E+00 0.  1.
        -11    1    4    4    0    0  0.21619833218E-01 -0.26150730735E-01  0.59724004489E-01  0.68691307598E-01  0.51100000000E-03 0.  1.
         11    1    4    4    0    0  0.36603803320E-01 -0.16018415544E-01  0.48768347703E-01  0.63047925523E-01  0.51100000000E-03 0. -1.
</event>
<event>
 7    1  0.1166736E+005  0.1043930E+01  0.7957747E-01            NaN
         13   -1    0    0    0    0  0.00000000000E+00  0.00000000000E+00  0.74505805969E-08  0.10566000000E+00  0.10566000000E+00 0. -1.
     999900   -1    0    0    0    0 -0.00000000000E+00 -0.00000000000E+00 -0.74505805969E-08  0.93827000000E+00  0.93827000000E+00 0. -1.
     999903    2    1    2    0    0  0.34915850804E-01  0.89797792245E-01  0.47413983603E-01  0.10915959235E+00  0.19620668468E-01 0.  0.
         14    1    1    2    0    0  0.14433726020E-01 -0.49151750456E-01 -0.40158874171E-02  0.51384378671E-01  0.00000000000E+00 0.  1.
     999901    1    1    2    0    0 -0.49349576823E-01 -0.40646041790E-01 -0.43398096186E-01  0.88338602898E+00  0.88000000000E+00 0.  1.
        -11    1    3    3    0    0  0.34122022261E-01  0.72063729286E-01  0.44017610359E-01  0.91078562925E-01  0.51100000000E-03 0. -1.
         11    1    3    3    0    0  0.79382854284E-03  0.17734062959E-01  0.33963732432E-02  0.18081029423E-01  0.51100000000E-03 0.  1.
</event>
<event>
 8    1  0.1166736E+005  0.1043930E+01  0.7957747E-01            NaN
         13   -1    0    0    0    0  0.00000000000E+00  0.00000000000E+00  0.74505805969E-08  0.10566000000E+00  0.10566000000E+00 0.  1.
     999900   -1    0    0    0    0 -0.00000000000E+00 -0.00000000000E+00 -0.74505805969E-08  0.93827000000E+00  0.93827000000E+00 0.  1.
     999902    2    1    2    0    0 -0.28107961393E-02 -0.84761839619E-02 -0.23213677726E-01  0.10190579051E+01  0.10187543339E+01 0.  0.
     999903    2    3    3    0    0 -0.89284830136E-01 -0.14455055485E-01  0.88303281344E-01  0.12779501596E+00  0.18798060707E-01 0.  0.
         14    1    1    2    0    0  0.28107961393E-02  0.84761839619E-02  0.23213677726E-01  0.24872094866E-01  0.00000000000E+00 0.  1.
     999901    1    3    3    0    0  0.86474033996E-01  0.59788715227E-02 -0.11151695907E+00  0.89126288917E+00  0.88000000000E+00 0.  1.
        -11    1    4    4    0    0 -0.14036305781E-01 -0.59435444837E-02  0.73112123673E-02  0.16913265453E-01  0.51100000000E-03 0.  1.
         11    1    4    4    0    0 -0.75248524355E-01 -0.85115110009E-02  0.80992068977E-01  0.11088175051E+00  0.51100000000E-03 0. -1.
</event>
<event>
 8    1  0.1166736E+005  0.1043930E+01  0.7957747E-01            NaN
         13   -1    0    0    0    0  0.00000000000E+00  0.00000000000E+00  0.74505805969E-08  0.10566000000E+00  0.10566000000E+00 0. -1.
     999900   -1    0    0    0    0 -0.00000000000E+00 -0.00000000000E+00 -0.74505805969E-08  0.93827000000E+00  0.93827000000E+00 0.  1.
     999902    2    1    2    0    0 -0.15433721471E-01  0.11706880466E-02 -0.18350558562E-01  0.10199234745E+01  0.10196409076E+01 0.  0.
     999903    2    3    3    0    0 -0.60736373366E-01  0.54145723590E-01 -0.10341114549E+00  0.13307851162E+00  0.19883631782E-01 0.  0.
         14    1    1    2    0    0  0.15433721471E-01 -0.11706880466E-02  0.18350558562E-01  0.24006525539E-01  0.00000000000E+00 0. -1.
     999901    1    3    3    0    0  0.45302651895E-01 -0.52975035544E-01  0.85060586923E-01  0.88684496284E+00  0.88000000000E+00 0. -1.
        -11    1    4    4    0    0 -0.42507736570E-01  0.39235017071E-01 -0.57980729083E-01  0.81904336264E-01  0.51100000000E-03 0.  1.
         11    1    4    4    0    0 -0.18228636797E-01  0.14910706519E-01 -0.45430416402E-01  0.51174175360E-01  0.51100000000E-03 0. -1.
</event>
<event>
 8    1  0.1166736E+005  0.1043930E+01  0.7957747E-01            NaN
         13   -1    0    0    0    0  0.00000000000E+00  0.00000000000E+00  0.74505805969E-08  0.10566000000E+00  0.10566000000E+00 0.  1.
     999900   -1    0    0    0    0 -0.00000000000E+00 -0.00000000000E+00 -0.74505805969E-08  0.93827000000E+00  0.93827000000E+00 0.  1.
     999902    2    1    2    0    0  0.64680283867E-02 -0.24597095171E-01 -0.38621575733E-02  0.10182051338E+01  0.10178801136E+01 0.  0.
     999903    2    3    3    0    0 -0.29210879106E-01 -0.92627751845E-01  0.84703814134E-01  0.13042977589E+00  0.20100110464E-01 0.  0.
         14    1    1    2    0    0 -0.64680283867E-02  0.24597095171E-01  0.38621575733E-02  0.25724866243E-01  0.00000000000E+00 0.  1.
     999901    1    3    3    0    0  0.35678907492E-01  0.68030656673E-01 -0.88565971707E-01  0.88777535786E+00  0.88000000000E+00 0.  1.
        -11    1    4    4    0    0 -0.83397784247E-03 -0.23481745391E-01  0.13023035541E-01  0.26869098633E-01  0.51100000000E-03 0. -1.
         11    1    4    4    0    0 -0.28376901263E-01 -0.69146006454E-01  0.71680778593E-01  0.10356067726E+00  0.51100000000E-03 0.  1.
</event>
<event>
 8    1  0.1166736E+005  0.1043930E+01  0.7957747E-01            NaN
         13   -1    0    0    0    0  0.00000000000E+00  0.00000000000E+00  0.74505805969E-08  0.10566000000E+00  0.10566000000E+00 0. -1.
     999900   -1    0    0    0    0 -0.00000000000E+00 -0.00000000000E+00 -0.74505805969E-08  0.93827000000E+00  0.93827000000E+00 0.  1.
     999902    2    1    2    0    0  0.89541044802E-02  0.76429478306E-02 -0.19252028108E-01  0.10213638478E+01  0.10211145276E+01 0.  0.
     999903    2    3    3    0    0  0.93087258867E-01 -0.89791375802E-01  0.12053747252E-01  0.13144706144E+00  0.20132267784E-01 0.  0.
         14    1    1    2    0    0 -0.89541044802E-02 -0.76429478306E-02  0.19252028108E-01  0.22566152194E-01  0.00000000000E+00 0. -1.
     999901    1    3    3    0    0 -0.84133154386E-01  0.97434323632E-01 -0.31305775360E-01  0.88991678637E+00  0.88000000000E+00 0. -1.
        -11    1    4    4    0    0  0.28776861734E-01 -0.36182727153E-01 -0.31957260860E-02  0.46344053575E-01  0.51100000000E-03 0.  1.
         11    1    4    4    0    0  0.64310397132E-01 -0.53608648648E-01  0.15249473338E-01  0.85103007863E-01  0.51100000000E-03 0. -1.
</event>
<event>
 7    1  0.1166736E+005  0.1043930E+01  0.7957747E-01            NaN
         13   -1    0    0    0    0  0.00000000000E+00  0.00000000000E+00  0.74505805969E-08  0.10566000000E+00  0.10566000000E+00 0.  1.
     999900   -1    0    0    0    0 -0.00000000000E+00 -0.00000000000E+00 -0.74505805969E-08  0.93827000000E+00  0.93827000000E+00 0. -1.
     999902    2    1    2    0    0  0.24022808802E-01  0.19284011035E-03 -0.22468599064E-01  0.10110366804E+01  0.10105014590E+01 0.  0.
         14    1    1    2    0    0 -0.24022808802E-01 -0.19284011035E-03  0.22468599064E-01  0.32893319594E-01  0.00000000000E+00 0.  1.
     999901    1    3    3    0    0 -0.71777139155E-01  0.47094621383E-01  0.34009857077E-01  0.88483135763E+00  0.88000000000E+00 0. -1.
        -11    1    3    3    0    0  0.32110840643E-01 -0.25256292929E-01 -0.39496183500E-01  0.56826015621E-01  0.51100000000E-03 0. -1.
         11    1    3    3    0    0  0.63689107314E-01 -0.21645488344E-01 -0.16982272641E-01  0.69379307153E-01  0.51100000000E-03 0.  1.
</event>
<event>
 8    1  0.1166736E+005  0.1043930E+01  0.7957747E-01            NaN
         13   -1    0    0    0    0  0.00000000000E+00  0.00000000000E+00  0.74505805969E-08  0.10566000000E+00  0.10566000000E+00 0. -1.
     999900   -1    0    0    0    0 -0.00000000000E+00 -0.00000000000E+00 -0.74505805969E-08  0.93827000000E+00  0.93827000000E+00 0.  1.
     999902    2    1    2    0    0 -0.26398365555E-02  0.12899889679E-01  0.18972689904E-01  0.10208358697E+01  0.10205746098E+01 0.  0.
     999903    2    3    3    0    0  0.46946784233E-01  0.10051529933E+00 -0.66517024838E-01  0.13097982278E+00  0.20588186733E-01 0.  0.
         14    1    1    2    0    0  0.26398365555E-02 -0.12899889679E-01 -0.18972689904E-01  0.23094130271E-01  0.00000000000E+00 0. -1.
     999901    1    3    3    0    0 -0.49586620789E-01 -0.87615409649E-01  0.85489714742E-01  0.88985604695E+00  0.88000000000E+00 0. -1.
        -11    1    4    4    0    0  0.36545332248E-01  0.92533755952E-01 -0.61305937548E-01  0.11686204003E+00  0.51100000000E-03 0. -1.
         11    1    4    4    0    0  0.10401451985E-01  0.79815433755E-02 -0.52110872904E-02  0.14117782751E-01  0.51100000000E-03 0.  1.
</event>
<event>
 8    1  0.1166736E+005  0.1043930E+01  0.7957747E-01            NaN
         13   -1    0    0    0    0  0.00000000000E+00  0.00000000000E+00  0.74505805969E-08  0.10566000000E+00  0.10566000000E+00 0.  1.
     999900   -1    0    0    0    0 -0.00000000000E+00 -0.00000000000E+00 -0.74505805969E-08  0.93827000000E+00  0.93827000000E+00 0. -1.
     999902    2    1    2    0    0 -0.70072600939E-02 -0.12607468377E-02  0.22371066675E-01  0.10204532924E+01  0.10201832022E+01 0.  0.
     999903    2    3    3    0    0  0.44661985318E-01 -0.47296915595E-01 -0.10854494605E+00  0.12808114907E+00  0.19775850865E-01 0.  0.
         14    1    1    2    0    0  0.70072600939E-02  0.12607468377E-02 -0.22371066675E-01  0.23476707623E-01  0.00000000000E+00 0. -1.
     999901    1    3    3    0    0 -0.51669245412E-01  0.46036168757E-01  0.13091601273E+00  0.89237214330E+00  0.88000000000E+00 0.  1.
        -11    1    4    4    0    0  0.33830519121E-01 -0.21728737512E-01 -0.63250596125E-01  0.74950257432E-01  0.51100000000E-03 0. -1.
         11    1    4    4    0    0  0.10831466197E-01 -0.25568178083E-01 -0.45294349926E-01  0.53130891642E-01  0.51100000000E-03 0.  1.
</event>
<event>
 8    1  0.1166736E+005  0.1043930E+01  0.7957747E-01            NaN
         13   -1    0    0    0    0  0.00000000000E+00  0.00000000000E+00  0.74505805969E-08  0.10566000000E+00  0.10566000000E+00 0.  1.
     999900   -1    0    0    0    0 -0.00000000000E+00 -0.00000000000E+00 -0.74505805969E-08  0.93827000000E+00  0.93827000000E+00 0.  1.
     999902    2    1    2    0    0  0.12249200297E-01 -0.13810441438E-01 -0.14869292848E-01  0.10202262646E+01  0.10199508635E+01 0.  0.
     999903    2    3    3    0    0  0.12984793765E+00  0.10495640673E-01 -0.90074500840E-02  0.13205138891E+00  0.19641531832E-01 0.  0.
         14    1    1    2    0    0 -0.12249200297E-01  0.13810441438E-01  0.14869292848E-01  0.23703735369E-01  0.00000000000E+00 0.  1.
     999901    1    3    3    0    0 -0.11759873735E+00 -0.24306082110E-01 -0.58618427639E-02  0.88817487572E+00  0.88000000000E+00 0.  1.
        -11    1    4    4    0    0  0.96643442158E-02 -0.44082991201E-02 -0.44681410537E-03  0.10643937904E-01  0.51100000000E-03 0. -1.
         11    1    4    4    0    0  0.12018359343E+00  0.14903939793E-01 -0.85606359786E-02  0.12140745101E+00  0.51100000000E-03 0.  1.
</event>
<event>
 8    1  0.1166736E+005  0.1043930E+01  0.7957747E-01            NaN
         13   -1    0    0    0    0  0.00000000000E+00  0.00000000000E+00  0.74505805969E-08  0.10566000000E+00  0.10566000000E+00 0.  1.
     999900   -1    0    0    0    0 -0.00000000000E+00 -0.00000000000E+00 -0.74505805969E-08  0.93827000000E+00  0.93827000000E+00 0. -1.
     999902    2    1    2    0    0  0.23693237438E-01 -0.47993577972E-03  0.51830819886E-03  0.10202262349E+01  0.10199508330E+01 0.  0.
     999903    2    3    3    0    0  0.10069425022E+00  0.15638408747E-01  0.82796810899E-01  0.13289387942E+00  0.20532399678E-01 0.  0.
         14    1    1    2    0    0 -0.23693237438E-01  0.47993577972E-03 -0.51830819886E-03  0.23703765144E-01  0.00000000000E+00 0.  1.
     999901    1    3    3    0    0 -0.77001012781E-01 -0.16118344527E-01 -0.82278502700E-01  0.88733235544E+00  0.88000000000E+00 0. -1.
        -11    1    4    4    0    0  0.82258333445E-01  0.20699497840E-01  0.67673479094E-01  0.10851204323E+00  0.51100000000E-03 0. -1.
         11    1    4    4    0    0  0.18435916774E-01 -0.50610890926E-02  0.15123331805E-01  0.24381836190E-01  0.51100000000E-03 0.  1.
</event>
<event>
 8    1  0.1166736E+005  0.1043930E+01  0.7957747E-01            NaN
         13   -1    0    0    0    0  0.00000000000E+00  0.00000000000E+00  0.74505805969E-08  0.10566000000E+00  0.10566000000E+00 0.  1.
     999900   -1    0    0    0    0 -0.00000000000E+00 -0.00000000000E+00 -0.74505805969E-08  0.93827000000E+00  0.93827000000E+00 0.  1.
     999902    2    1    2    0    0 -0.19812854195E-01 -0.39863662143E-02 -0.11245304779E-01  0.10208021556E+01  0.10205401235E+01 0.  0.
     999903    2    3    3    0    0 -0.11381241988E+00 -0.58588012796E-01 -0.33253915772E-01  0.13384012873E+00  0.20531317073E-01 0.  0.
         14    1    1    2    0    0  0.19812854195E-01  0.39863662143E-02  0.11245304779E-01  0.23127844399E-01  0.00000000000E+00 0.  1.
     999901    1    3    3    0    0  0.93999565687E-01  0.54601646582E-01  0.22008610993E-01  0.88696202687E+00  0.88000000000E+00 0. -1.
        -11    1    4    4    0    0 -0.10516228597E+00 -0.48158901994E-01 -0.26372000813E-01  0.11863443758E+00  0.51100000000E-03 0.  1.
         11    1    4    4    0    0 -0.86501339134E-02 -0.10429110802E-01 -0.68819149597E-02  0.15205691150E-01  0.51100000000E-03 0. -1.
</event>
<event>
 8    1  0.1166736E+005  0.1043930E+01  0.7957747E-01            NaN
         13   -1    0    0    0    0  0.00000000000E+00  0.00000000000E+00  0.74505805969E-08  0.10566000000E+00  0.10566000000E+00 0.  1.
     999900   -1    0    0    0    0 -0.00000000000E+00 -0.00000000000E+00 -0.74505805969E-08  0.93827000000E+00  0.93827000000E+00 0.  1.
     999902    2    1    2    0    0 -0.27499294173E-02  0.38417789821E-02 -0.24443747049E-01  0.10190338528E+01  0.10187296869E+01 0.  0.
     999903    2    3    3    0    0  0.75668127990E-01 -0.98697371890E-01  0.24326697217E-01  0.12828011271E+00  0.19928931401E-01 0.  0.
         14    1    1    2    0    0  0.27499294173E-02 -0.38417789821E-02  0.24443747049E-01  0.24896147239E-01  0.00000000000E+00 0.  1.
     999901    1    3    3    0    0 -0.78418057407E-01  0.10253915087E+00 -0.48770444265E-01  0.89075374006E+00  0.88000000000E+00 0.  1.
        -11    1    4    4    0    0  0.54612440411E-01 -0.73307461620E-01  0.88539958255E-02  0.91843110465E-01  0.51100000000E-03 0. -1.
         11    1    4    4    0    0  0.21055687579E-01 -0.25389910270E-01  0.15472701391E-01  0.36437002241E-01  0.51100000000E-03 0.  1.
</event>
<event>
 8    1  0.1166736E+005  0.1043930E+01  0.7957747E-01            NaN
         13   -1    0    0    0    0  0.00000000000E+00  0.00000000000E+00  0.74505805969E-08  0.10566000000E+00  0.10566000000E+00 0. -1.
     999900   -1    0    0    0    0 -0.00000000000E+00 -0.00000000000E+00 -0.74505805969E-08  0.93827000000E+00  0.93827000000E+00 0.  1.
     999902    2    1    2    0    0 -0.67581543449E-02 -0.15736982155E-01 -0.14365575054E-01  0.10215761412E+01  0.10213315413E+01 0.  0.
     999903    2    3    3    0    0  0.11807145535E+00  0.45617200596E-01  0.19930135474E-01  0.12999161745E+00  0.21881790334E-01 0.  0.
         14    1    1    2    0    0  0.67581543449E-02  0.15736982155E-01  0.14365575054E-01  0.22353858819E-01  0.00000000000E+00 0. -1.
     999901    1    3    3    0    0 -0.12482960969E+00 -0.61354182751E-01 -0.34295710528E-01  0.89158452373E+00  0.88000000000E+00 0. -1.
        -11    1    4    4    0    0  0.51143376958E-01  0.27003572831E-01  0.17704235985E-01  0.60485858224E-01  0.51100000000E-03 0. -1.
         11    1    4    4    0    0  0.66928078392E-01  0.18613627766E-01  0.22258994885E-02  0.69505759224E-01  0.51100000000E-03 0.  1.
</event>
<event>
 8    1  0.1166736E+005  0.1043930E+01  0.7957747E-01            NaN
         13   -1    0    0    0    0  0.00000000000E+00  0.00000000000E+00  0.74505805969E-08  0.10566000000E+00  0.10566000000E+00 0. -1.
     999900   -1    0    0    0    0 -0.00000000000E+00 -0.00000000000E+00 -0.74505805969E-08  0.93827000000E+00  0.93827000000E+00 0.  1.
     999902    2    1    2    0    0 -0.43292801748E-04 -0.16629604994E-01 -0.15643990291E-01  0.10210984414E+01  0.10208431549E+01 0.  0.
     999903    2    3    3    0    0 -0.86625311858E-01 -0.70640273569E-01 -0.70102144790E-01  0.13352912638E+00  0.20535919363E-01 0.  0.
         14    1    1    2    0    0  0.43292801748E-04  0.16629604994E-01  0.15643990291E-01  0.22831558614E-01  0.00000000000E+00 0. -1.
     999901    1    3    3    0    0  0.86582019056E-01  0.54010668575E-01  0.54458154499E-01  0.88756931500E+00  0.88000000000E+00 0.  1.
        -11    1    4    4    0    0 -0.30783663428E-01 -0.13266961493E-01 -0.18749317651E-01  0.38411511747E-01  0.51100000000E-03 0. -1.
         11    1    4    4    0    0 -0.55841648430E-01 -0.57373312076E-01 -0.51352827139E-01  0.95117614636E-01  0.51100000000E-03 0.  1.
</event>
<event>
 8    1  0.1166736E+005  0.1043930E+01  0.7957747E-01            NaN
         13   -1    0    0    0    0  0.00000000000E+00  0.00000000000E+00  0.74505805969E-08  0.10566000000E+00  0.10566000000E+00 0. -1.
     999900   -1    0    0    0    0 -0.00000000000E+00 -0.00000000000E+00 -0.74505805969E-08  0.93827000000E+00  0.93827000000E+00 0. -1.
     999902    2    1    2    0    0  0.85100179140E-02  0.19576103605E-01  0.97958818286E-02  0.10204437585E+01  0.10201734464E+01 0.  0.
     999903    2    3    3    0    0  0.81503897761E-01  0.94709689240E-01  0.43205179134E-01  0.13360141441E+00  0.19231220527E-01 0.  0.
         14    1    1    2    0    0 -0.85100179140E-02 -0.19576103605E-01 -0.97958818286E-02  0.23486241463E-01  0.00000000000E+00 0. -1.
     999901    1    3    3    0    0 -0.72993879847E-01 -0.75133585635E-01 -0.33409297306E-01  0.88684234412E+00  0.88000000000E+00 0.  1.
        -11    1    4    4    0    0  0.69103731548E-01  0.88369843386E-01  0.35435376115E-01  0.11764557763E+00  0.51100000000E-03 0. -1.
         11    1    4    4    0    0  0.12400166213E-01  0.63398458535E-02  0.77698030194E-02  0.15955836785E-01  0.51100000000E-03 0.  1.
</event>
<event>
 8    1  0.1166736E+005  0.1043930E+01  0.7957747E-01            NaN
         13   -1    0    0    0    0  0.00000000000E+00  0.00000000000E+00  0.74505805969E-08  0.10566000000E+00  0.10566000000E+00 0.  1.
     999900   -1    0    0    0    0 -0.00000000000E+00 -0.00000000000E+00 -0.74505805969E-08  0.93827000000E+00  0.93827000000E+00 0. -1.
     999902    2    1    2    0    0 -0.39904827109E-02  0.20501737805E-01  0.12748587828E-01  0.10194601880E+01  0.10191664748E+01 0.  0.
     999903    2    3    3    0    0 -0.44980239505E-01  0.11186651959E-01  0.12165191388E+00  0.13175141519E+00  0.20270276925E-01 0.  0.
         14    1    1    2    0    0  0.39904827109E-02 -0.20501737805E-01 -0.12748587828E-01  0.24469811951E-01  0.00000000000E+00 0. -1.
     999901    1    3    3    0    0  0.40989756794E-01  0.93150858461E-02 -0.10890332605E+00  0.88770877286E+00  0.88000000000E+00 0. -1.
        -11    1    4    4    0    0 -0.43325373279E-01  0.44509726366E-02  0.10728766117E+00  0.11579206573E+00  0.51100000000E-03 0.  1.
         11    1    4    4    0    0 -0.16548662264E-02  0.67356793220E-02  0.14364252711E-01  0.15959349458E-01  0.51100000000E-03 0. -1.
</event>
<event>
 8    1  0.1166736E+005  0.1043930E+01  0.7957747E-01            NaN
         13   -1    0    0    0    0  0.00000000000E+00  0.00000000000E+00  0.74505805969E-08  0.10566000000E+00  0.10566000000E+00 0.  1.
     999900   -1    0    0    0    0 -0.00000000000E+00 -0.00000000000E+00 -0.74505805969E-08  0.93827000000E+00  0.93827000000E+00 0. -1.
     999902    2    1    2    0    0  0.13363738356E-01  0.15130171542E-01  0.11939393333E-01  0.10204766270E+01  0.10202070797E+01 0.  0.
     999903    2    3    3    0    0 -0.68581706572E-03  0.26859669206E-01 -0.12537831912E+00  0.12963931001E+00  0.19097529106E-01 0.  0.
         14    1    1    2    0    0 -0.13363738356E-01 -0.15130171542E-01 -0.11939393333E-01  0.23453373039E-01  0.00000000000E+00 0. -1.
     999901    1    3    3    0    0  0.14049555422E-01 -0.11729497664E-01  0.13731771246E+00  0.89083731695E+00  0.88000000000E+00 0.  1.
        -11    1    4    4    0    0  0.22540161363E-02 -0.13951827280E-02 -0.29944483126E-01  0.30065932785E-01  0.51100000000E-03 0. -1.
         11    1    4    4    0    0 -0.29398332020E-02  0.28254851934E-01 -0.95433835998E-01  0.99573377222E-01  0.51100000000E-03 0.  1.
</event>
<event>
 8    1  0.1166736E+005  0.1043930E+01  0.7957747E-01            NaN
         13   -1    0    0    0    0  0.00000000000E+00  0.00000000000E+00  0.74505805969E-08  0.10566000000E+00  0.10566000000E+00 0. -1.
     999900   -1    0    0    0    0 -0.00000000000E+00 -0.00000000000E+00 -0.74505805969E-08  0.93827000000E+00  0.93827000000E+00 0.  1.
     999902    2    1    2    0    0  0.18415965807E-01  0.16741658657E-02  0.17217934791E-01  0.10186632648E+01  0.10183498609E+01 0.  0.
     999903    2    3    3    0    0 -0.80577937416E-01 -0.30153536176E-01  0.94184977621E-01  0.12920459733E+00  0.20517753793E-01 0.  0.
         14    1    1    2    0    0 -0.18415965807E-01 -0.16741658657E-02 -0.17217934791E-01  0.25266735175E-01  0.00000000000E+00 0.  1.
     999901    1    3    3    0    0  0.98993903223E-01  0.31827702042E-01 -0.76967042830E-01  0.88945866749E+00  0.88000000000E+00 0.  1.
        -11    1    4    4    0    0 -0.16517649793E-01 -0.14707333897E-01  0.29408613613E-01  0.36800354627E-01  0.51100000000E-03 0. -1.
         11    1    4    4    0    0 -0.64060287623E-01 -0.15446202279E-01  0.64776364007E-01  0.92404242707E-01  0.51100000000E-03 0.  1.
</event>
<event>
 8    1  0.1166736E+005  0.1043930E+01  0.7957747E-01            NaN
         13   -1    0    0    0    0  0.00000000000E+00  0.00000000000E+00  0.74505805969E-08  0.10566000000E+00  0.10566000000E+00 0.  1.
     999900   -1    0    0    0    0 -0.00000000000E+00 -0.00000000000E+00 -0.74505805969E-08  0.93827000000E+00  0.93827000000E+00 0.  1.
     999902    2    1    2    0    0 -0.51798613218E-02  0.36423281456E-02 -0.22203301432E-01  0.10208413857E+01  0.10205802519E+01 0.  0.
     999903    2    3    3    0    0 -0.11545379431E+00  0.54734031977E-01 -0.28324232664E-01  0.13246749574E+00  0.20493471992E-01 0.  0.
         14    1    1    2    0    0  0.51798613218E-02 -0.36423281456E-02  0.22203301432E-01  0.23088614340E-01  0.00000000000E+00 0.  1.
     999901    1    3    3    0    0  0.11027393299E+00 -0.51091703831E-01  0.61209312314E-02  0.88837388992E+00  0.88000000000E+00 0. -1.
        -11    1    4    4    0    0 -0.65554829483E-01  0.40624455711E-01 -0.11673845674E-01  0.78002063205E-01  0.51100000000E-03 0. -1.
         11    1    4    4    0    0 -0.49898964826E-01  0.14109576265E-01 -0.16650386990E-01  0.54465432533E-01  0.51100000000E-03 0.  1.
</event>
<event>
 8    1  0.1166736E+005  0.1043930E+01  0.7957747E-01            NaN
         13   -1    0    0    0    0  0.00000000000E+00  0.00000000000E+00  0.74505805969E-08  0.10566000000E+00  0.10566000000E+00 0.  1.
     999900   -1    0    0    0    0 -0.00000000000E+00 -0.00000000000E+00 -0.74505805969E-08  0.93827000000E+00  0.93827000000E+00 0.  1.
     999902    2    1    2    0    0 -0.37883459542E-02  0.17771267073E-01  0.15174780539E-01  0.10202563129E+01  0.10199816177E+01 0.  0.
     999903    2    3    3    0    0 -0.11593233621E+00 -0.53835605167E-02  0.58511581148E-01  0.13177980845E+00  0.21749103082E-01 0.  0.
         14    1    1    2    0    0  0.37883459542E-02 -0.17771267073E-01 -0.15174780539E-01  0.23673687141E-01  0.00000000000E+00 0. -1.
     999901    1    3    3    0    0  0.11214399026E+00  0.23154827589E-01 -0.43336800609E-01  0.88847650440E+00  0.88000000000E+00 0. -1.
        -11    1    4    4    0    0 -0.79572493219E-01  0.45953933656E-02  0.46120203361E-01  0.92088183804E-01  0.51100000000E-03 0. -1.
         11    1    4    4    0    0 -0.36359842991E-01 -0.99789538823E-02  0.12391377787E-01  0.39691624651E-01  0.51100000000E-03 0.  1.
</event>
<event>
 8    1  0.1166736E+005  0.1043930E+01  0.7957747E-01            NaN
         13   -1    0    0    0    0  0.00000000000E+00  0.00000000000E+00  0.74505805969E-08  0.10566000000E+00  0.10566000000E+00 0. -1.
     999900   -1    0    0    0    0 -0.00000000000E+00 -0.00000000000E+00 -0.74505805969E-08  0.93827000000E+00  0.93827000000E+00 0.  1.
     999902    2    1    2    0    0  0.10701246872E-01 -0.19652599202E-01  0.88064923515E-02  0.10198822216E+01  0.10195986712E+01 0.  0.
     999903    2    3    3    0    0 -0.12184875562E+00 -0.10874101698E-02  0.38781466047E-01  0.12925734630E+00  0.18845629647E-01 0.  0.
         14    1    1    2    0    0 -0.10701246872E-01  0.19652599202E-01 -0.88064923515E-02  0.24047778432E-01  0.00000000000E+00 0.  1.
     999901    1    3    3    0    0  0.13255000249E+00 -0.18565189032E-01 -0.29974973695E-01  0.89062487527E+00  0.88000000000E+00 0.  1.
        -11    1    4    4    0    0 -0.94876523969E-01  0.12415775346E-02  0.22005690739E-01  0.97404352373E-01  0.51100000000E-03 0.  1.
         11    1    4    4    0    0 -0.26972231647E-01 -0.23289877044E-02  0.16775775307E-01  0.31852993924E-01  0.51100000000E-03 0. -1.
</event>
<event>
 8    1  0.1166736E+005  0.1043930E+01  0.7957747E-01            NaN
         13   -1    0    0    0    0  0.00000000000E+00  0.00000000000E+00  0.74505805969E-08  0.10566000000E+00  0.10566000000E+00 0. -1.
     999900   -1    0    0    0    0 -0.00000000000E+00 -0.00000000000E+00 -0.74505805969E-08  0.93827000000E+00  0.93827000000E+00 0.  1.
     999902    2    1    2    0    0  0.18634229526E-01  0.12831226260E-01  0.59442031182E-02  0.10205375134E+01  0.10202693801E+01 0.  0.
     999903    2    3    3    0    0 -0.77754988381E-01  0.10191011941E+00  0.18931116436E-01  0.13070910837E+00  0.17174783370E-01 0.  0.
         14    1    1    2    0    0 -0.18634229526E-01 -0.12831226260E-01 -0.59442031182E-02  0.23392486573E-01  0.00000000000E+00 0. -1.
     999901    1    3    3    0    0  0.96389217907E-01 -0.89078893152E-01 -0.12986913318E-01  0.88982840506E+00  0.88000000000E+00 0. -1.
        -11    1    4    4    0    0 -0.12110176023E-01  0.27783831873E-01  0.41279482449E-02  0.30592462381E-01  0.51100000000E-03 0.  1.
         11    1    4    4    0    0 -0.65644812358E-01  0.74126287540E-01  0.14803168192E-01  0.10011664599E+00  0.51100000000E-03 0. -1.
</event>
<event>
 8    1  0.1166736E+005  0.1043930E+01  0.7957747E-01            NaN
         13   -1    0    0    0    0  0.00000000000E+00  0.00000000000E+00  0.74505805969E-08  0.10566000000E+00  0.10566000000E+00 0.  1.
     999900   -1    0    0    0    0 -0.00000000000E+00 -0.00000000000E+00 -0.74505805969E-08  0.93827000000E+00  0.93827000000E+00 0. -1.
     999902    2    1    2    0    0  0.16449139173E-01 -0.59192531096E-02 -0.14509230720E-01  0.10212115160E+01  0.10209587803E+01 0.  0.
     999903    2    3    3    0    0  0.59828023205E-01 -0.11316686301E+00  0.28228999397E-01  0.13261130576E+00  0.20068651311E-01 0.  0.
         14    1    1    2    0    0 -0.16449139173E-01  0.59192531096E-02  0.14509230720E-01  0.22718483951E-01  0.00000000000E+00 0.  1.
     999901    1    3    3    0    0 -0.43378884032E-01  0.10724760990E+00 -0.42738230117E-01  0.88860021029E+00  0.88000000000E+00 0. -1.
        -11    1    4    4    0    0  0.26875377569E-01 -0.48693737393E-01  0.21896474232E-02  0.55663467891E-01  0.51100000000E-03 0.  1.
         11    1    4    4    0    0  0.32952645637E-01 -0.64473125614E-01  0.26039351974E-01  0.76947837872E-01  0.51100000000E-03 0. -1.
</event>
<event>
 8    1  0.1166736E+005  0.1043930E+01  0.7957747E-01            NaN
         13   -1    0    0    0    0  0.00000000000E+00  0.00000000000E+00  0.74505805969E-08  0.10566000000E+00  0.10566000000E+00 0.  1.
     999900   -1    0    0    0    0 -0.00000000000E+00 -0.00000000000E+00 -0.74505805969E-08  0.93827000000E+00  0.93827000000E+00 0.  1.
     999902    2    1    2    0    0 -0.19063861310E-01  0.10357801485E-03 -0.12941957386E-01  0.10208879559E+01  0.10206278865E+01 0.  0.
     999903    2    3    3    0    0 -0.32421303770E-02 -0.66744591564E-01  0.10939885896E+00  0.12977276675E+00  0.20186845639E-01 0.  0.
         14    1    1    2    0    0  0.19063861310E-01 -0.10357801485E-03  0.12941957386E-01  0.23042044124E-01  0.00000000000E+00 0.  1.
     999901    1    3    3    0    0 -0.15821730933E-01  0.66848169579E-01 -0.12234081634E+00  0.89111518912E+00  0.88000000000E+00 0.  1.
        -11    1    4    4    0    0 -0.91979242489E-02 -0.37187094765E-01  0.73527880022E-01  0.82910144670E-01  0.51100000000E-03 0. -1.
         11    1    4    4    0    0  0.59557938719E-02 -0.29557496799E-01  0.35870978934E-01  0.46862622081E-01  0.51100000000E-03 0.  1.
</event>
<event>
 8    1  0.1166736E+005  0.1043930E+01  0.7957747E-01            NaN
         13   -1    0    0    0    0  0.00000000000E+00  0.00000000000E+00  0.74505805969E-08  0.10566000000E+00  0.10566000000E+00 0.  1.
     999900   -1    0    0    0    0 -0.00000000000E+00 -0.00000000000E+00 -0.74505805969E-08  0.93827000000E+00  0.93827000000E+00 0.  1.
     999902    2    1    2    0    0  0.77714658109E-02  0.21493497801E-01 -0.88733199992E-02  0.10194126197E+01  0.10191177495E+01 0.  0.
     999903    2    3    3    0    0  0.11102839772E+00  0.67108748668E-01  0.12239328756E-01  0.13195079572E+00  0.20744205820E-01 0.  0.
         14    1    1    2    0    0 -0.77714658109E-02 -0.21493497801E-01  0.88733199992E-02  0.24517380292E-01  0.00000000000E+00 0. -1.
     999901    1    3    3    0    0 -0.10325693191E+00 -0.45615250867E-01 -0.21112648755E-01  0.88746182399E+00  0.88000000000E+00 0.  1.
        -11    1    4    4    0    0  0.57055082507E-01  0.36568654032E-01 -0.38546005504E-02  0.67879805274E-01  0.51100000000E-03 0. -1.
         11    1    4    4    0    0  0.53973315212E-01  0.30540094635E-01  0.16093929306E-01  0.64070990446E-01  0.51100000000E-03 0.  1.
</event>
<event>
 8    1  0.1166736E+005  0.1043930E+01  0.7957747E-01            NaN
         13   -1    0    0    0    0  0.00000000000E+00  0.00000000000E+00  0.74505805969E-08  0.10566000000E+00  0.10566000000E+00 0.  1.
     999900   -1    0    0    0    0 -0.00000000000E+00 -0.00000000000E+00 -0.74505805969E-08  0.93827000000E+00  0.93827000000E+00 0. -1.
     999902    2    1    2    0    0 -0.99553306924E-02 -0.30007507336E-01 -0.16484419078E-01  0.10082747735E+01  0.10076441454E+01 0.  0.
     999903    2    3    3    0    0 -0.83990350558E-01 -0.24166295479E-01 -0.84558462108E-01  0.12252685265E+00  0.14976891609E-01 0.  0.
         14    1    1    2    0    0  0.99553306924E-02  0.30007507336E-01  0.16484419078E-01  0.35655226518E-01  0.00000000000E+00 0.  1.
     999901    1    3    3    0    0  0.74035019866E-01 -0.58412118573E-02  0.68074043030E-01  0.88574792083E+00  0.88000000000E+00 0.  1.
        -11    1    4    4    0    0 -0.10597041176E-01 -0.10420881366E-02 -0.47772963313E-02  0.11681905265E-01  0.51100000000E-03 0.  1.
         11    1    4    4    0    0 -0.73393309382E-01 -0.23124207342E-01 -0.79781165777E-01  0.11084494739E+00  0.51100000000E-03 0. -1.
</event>
<event>
 8    1  0.1166736E+005  0.1043930E+01  0.7957747E-01            NaN
         13   -1    0    0    0    0  0.00000000000E+00  0.00000000000E+00  0.74505805969E-08  0.10566000000E+00  0.10566000000E+00 0. -1.
     999900   -1    0    0    0    0 -0.00000000000E+00 -0.00000000000E+00 -0.74505805969E-08  0.93827000000E+00  0.93827000000E+00 0. -1.
     999902    2    1    2    0    0  0.75630837607E-02  0.61900307373E-02 -0.22200253909E-01  0.10196737021E+01  0.10193851533E+01 0.  0.
     999903    2    3    3    0    0  0.82323662545E-01  0.99699535345E-01 -0.11225080805E-01  0.13149938019E+00  0.21187302524E-01 0.  0.
         14    1    1    2    0    0 -0.75630837607E-02 -0.61900307373E-02  0.22200253909E-01  0.24256297948E-01  0.00000000000E+00 0. -1.
     999901    1    3    3    0    0 -0.74760578784E-01 -0.93509504608E-01 -0.10975173104E-01  0.88817432186E+00  0.88000000000E+00 0.  1.
        -11    1    4    4    0    0  0.75133165881E-01  0.79543672170E-01 -0.67237796399E-02  0.10962508258E+00  0.51100000000E-03 0. -1.
         11    1    4    4    0    0  0.71904966641E-02  0.20155863175E-01 -0.45013011653E-02  0.21874297607E-01  0.51100000000E-03 0.  1.
</event>
<event>
 8    1  0.1166736E+005  0.1043930E+01  0.7957747E-01            NaN
         13   -1    0    0    0    0  0.00000000000E+00  0.00000000000E+00  0.74505805969E-08  0.10566000000E+00  0.10566000000E+00 0. -1.
     999900   -1    0    0    0    0 -0.00000000000E+00 -0.00000000000E+00 -0.74505805969E-08  0.93827000000E+00  0.93827000000E+00 0.  1.
     999902    2    1    2    0    0 -0.71163645505E-02  0.16616760651E-01 -0.15404993374E-01  0.10201797747E+01  0.10199032795E+01 0.  0.
     999903    2    3    3    0    0  0.24516472571E-01 -0.10221626460E+00 -0.73737591656E-01  0.12971662767E+00  0.18437703070E-01 0.  0.
         14    1    1    2    0    0  0.71163645505E-02 -0.16616760651E-01  0.15404993374E-01  0.23750225258E-01  0.00000000000E+00 0. -1.
     999901    1    3    3    0    0 -0.31632837121E-01  0.11883302525E+00  0.58332598283E-01  0.89046314707E+00  0.88000000000E+00 0. -1.
        -11    1    4    4    0    0  0.99269198969E-02 -0.60004353639E-01 -0.52103327101E-01  0.80087976690E-01  0.51100000000E-03 0. -1.
         11    1    4    4    0    0  0.14589552674E-01 -0.42211910959E-01 -0.21634264556E-01  0.49628650978E-01  0.51100000000E-03 0.  1.
</event>
<event>
 8    1  0.1166736E+005  0.1043930E+01  0.7957747E-01            NaN
         13   -1    0    0    0    0  0.00000000000E+00  0.00000000000E+00  0.74505805969E-08  0.10566000000E+00  0.10566000000E+00 0.  1.
     999900   -1    0    0    0    0 -0.00000000000E+00 -0.00000000000E+00 -0.74505805969E-08  0.93827000000E+00  0.93827000000E+00 0.  1.
     999902    2    1    2    0    0  0.17542427331E-01  0.39743320275E-02 -0.15089454645E-01  0.10204518460E+01  0.10201817222E+01 0.  0.
     999903    2    3    3    0    0  0.21463072885E-01  0.32119987352E-01 -0.12587112529E+00  0.13305107529E+00  0.19149187196E-01 0.  0.
         14    1    1    2    0    0 -0.17542427331E-01 -0.39743320275E-02  0.15089454645E-01  0.23478153957E-01  0.00000000000E+00 0.  1.
     999901    1    3    3    0    0 -0.39206455541E-02 -0.28145655325E-01  0.11078167064E+00  0.88740077075E+00  0.88000000000E+00 0. -1.
        -11    1    4    4    0    0  0.10695057787E-01  0.30152572586E-02 -0.46869484100E-01  0.48171419932E-01  0.51100000000E-03 0. -1.
         11    1    4    4    0    0  0.10768015099E-01  0.29104730094E-01 -0.79001641189E-01  0.84879655363E-01  0.51100000000E-03 0.  1.
</event>
<event>
 8    1  0.1166736E+005  0.1043930E+01  0.7957747E-01            NaN
         13   -1    0    0    0    0  0.00000000000E+00  0.00000000000E+00  0.74505805969E-08  0.10566000000E+00  0.10566000000E+00 0.  1.
     999900   -1    0    0    0    0 -0.00000000000E+00 -0.00000000000E+00 -0.74505805969E-08  0.93827000000E+00  0.93827000000E+00 0.  1.
     999902    2    1    2    0    0  0.14575323415E-01  0.19465407981E-01  0.14778664477E-01  0.10154738744E+01  0.10150750901E+01 0.  0.
     999903    2    3    3    0    0  0.19529764768E-01 -0.83456048962E-01  0.90347122461E-01  0.12624501486E+00  0.20709355876E-01 0.  0.
         14    1    1    2    0    0 -0.14575323415E-01 -0.19465407981E-01 -0.14778664477E-01  0.28456125601E-01  0.00000000000E+00 0.  1.
     999901    1    3    3    0    0 -0.49544413529E-02  0.10292145694E+00 -0.75568457984E-01  0.88922885954E+00  0.88000000000E+00 0.  1.
        -11    1    4    4    0    0 -0.20401185235E-02 -0.35147844133E-01  0.38373119205E-01  0.52079654658E-01  0.51100000000E-03 0.  1.
         11    1    4    4    0    0  0.21569883291E-01 -0.48308204829E-01  0.51974003256E-01  0.74165360206E-01  0.51100000000E-03 0. -1.
</event>
<event>
 8    1  0.1166736E+005  0.1043930E+01  0.7957747E-01            NaN
         13   -1    0    0    0    0  0.00000000000E+00  0.00000000000E+00  0.74505805969E-08  0.10566000000E+00  0.10566000000E+00 0. -1.
     999900   -1    0    0    0    0 -0.00000000000E+00 -0.00000000000E+00 -0.74505805969E-08  0.93827000000E+00  0.93827000000E+00 0.  1.
     999902    2    1    2    0    0 -0.16098226334E-01  0.15060231703E-01  0.21202936285E-01  0.10133435982E+01  0.10128818885E+01 0.  0.
     999903    2    3    3    0    0  0.13107183225E-01  0.10025582216E+00  0.74496322815E-01  0.12714303981E+00  0.19814699853E-01 0.  0.
         14    1    1    2    0    0  0.16098226334E-01 -0.15060231703E-01 -0.21202936285E-01  0.30586401834E-01  0.00000000000E+00 0.  1.
     999901    1    3    3    0    0 -0.29205409559E-01 -0.85195590457E-01 -0.53293386529E-01  0.88620055835E+00  0.88000000000E+00 0. -1.
        -11    1    4    4    0    0  0.76912234347E-02  0.72161538361E-01  0.42025233996E-01  0.83861933855E-01  0.51100000000E-03 0. -1.
         11    1    4    4    0    0  0.54159597907E-02  0.28094283800E-01  0.32471088819E-01  0.43281105956E-01  0.51100000000E-03 0.  1.
</event>
<event>
 8    1  0.1166736E+005  0.1043930E+01  0.7957747E-01            NaN
         13   -1    0    0    0    0  0.00000000000E+00  0.00000000000E+00  0.74505805969E-08  0.10566000000E+00  0.10566000000E+00 0. -1.
     999900   -1    0    0    0    0 -0.00000000000E+00 -0.00000000000E+00 -0.74505805969E-08  0.93827000000E+00  0.93827000000E+00 0.  1.
     999902    2    1    2    0    0  0.51703284555E-02 -0.97479213057E-02  0.15152547074E-01  0.10251855622E+01  0.10250141867E+01 0.  0.
     999903    2    3    3    0    0 -0.81938277470E-01  0.85594031825E-01 -0.56392298172E-01  0.13288703471E+00  0.20944046943E-01 0.  0.
         14    1    1    2    0    0 -0.51703284555E-02  0.97479213057E-02 -0.15152547074E-01  0.18744437814E-01  0.00000000000E+00 0.  1.
     999901    1    3    3    0    0  0.87108605925E-01 -0.95341953131E-01  0.71544845246E-01  0.89229852748E+00  0.88000000000E+00 0. -1.
        -11    1    4    4    0    0 -0.43771904936E-01  0.33694348429E-01 -0.33000515617E-01  0.64347369253E-01  0.51100000000E-03 0.  1.
         11    1    4    4    0    0 -0.38166372534E-01  0.51899683397E-01 -0.23391782555E-01  0.68539665459E-01  0.51100000000E-03 0. -1.
</event>
<event>
 7    1  0.1166736E+005  0.1043930E+01  0.7957747E-01            NaN
         13   -1    0    0    0    0  0.00000000000E+00  0.00000000000E+00  0.74505805969E-08  0.10566000000E+00  0.10566000000E+00 0.  1.
     999900   -1    0    0    0    0 -0.00000000000E+00 -0.00000000000E+00 -0.74505805969E-08  0.93827000000E+00  0.93827000000E+00 0. -1.
     999903    2    1    2    0    0  0.27714537768E-01 -0.33746668538E-01 -0.97275587439E-01  0.10830561011E+00  0.18990314063E-01 0.  0.
         14    1    1    2    0    0 -0.38393807705E-01  0.32343503171E-01  0.10527595805E-01  0.51293439550E-01  0.00000000000E+00 0.  1.
     999901    1    1    2    0    0  0.10679269937E-01  0.14031653665E-02  0.86747991635E-01  0.88433095034E+00  0.88000000000E+00 0.  1.
        -11    1    3    3    0    0  0.13002686359E-01 -0.48284577701E-02 -0.18656796264E-01  0.23253408886E-01  0.51100000000E-03 0.  1.
         11    1    3    3    0    0  0.14711851408E-01 -0.28918210768E-01 -0.78618791175E-01  0.85052201222E-01  0.51100000000E-03 0. -1.
</event>
<event>
 8    1  0.1166736E+005  0.1043930E+01  0.7957747E-01            NaN
         13   -1    0    0    0    0  0.00000000000E+00  0.00000000000E+00  0.74505805969E-08  0.10566000000E+00  0.10566000000E+00 0.  1.
     999900   -1    0    0    0    0 -0.00000000000E+00 -0.00000000000E+00 -0.74505805969E-08  0.93827000000E+00  0.93827000000E+00 0.  1.
     999902    2    1    2    0    0  0.63626345769E-03  0.12565522001E-01 -0.19811786528E-01  0.10204607848E+01  0.10201908691E+01 0.  0.
     999903    2    3    3    0    0 -0.12580890486E+00 -0.20012076799E-01  0.15999654826E-01  0.13010572092E+00  0.21051030901E-01 0.  0.
         14    1    1    2    0    0 -0.63626345769E-03 -0.12565522001E-01  0.19811786528E-01  0.23469215151E-01  0.00000000000E+00 0. -1.
     999901    1    3    3    0    0  0.12644516832E+00  0.32577598800E-01 -0.35811441354E-01  0.89035506393E+00  0.88000000000E+00 0. -1.
        -11    1    4    4    0    0 -0.46675531466E-01 -0.15094284771E-02 -0.24557342357E-02  0.46767246696E-01  0.51100000000E-03 0. -1.
         11    1    4    4    0    0 -0.79133373392E-01 -0.18502648322E-01  0.18455389062E-01  0.83338474223E-01  0.51100000000E-03 0.  1.
</event>
<event>
 8    1  0.1166736E+005  0.1043930E+01  0.7957747E-01            NaN
         13   -1    0    0    0    0  0.00000000000E+00  0.00000000000E+00  0.74505805969E-08  0.10566000000E+00  0.10566000000E+00 0. -1.
     999900   -1    0    0    0    0 -0.00000000000E+00 -0.00000000000E+00 -0.74505805969E-08  0.93827000000E+00  0.93827000000E+00 0. -1.
     999902    2    1    2    0    0 -0.50214074932E-02 -0.98982117503E-02 -0.21226653446E-01  0.10199767133E+01  0.10196954132E+01 0.  0.
     999903    2    3    3    0    0 -0.89745608319E-01 -0.53226709102E-01 -0.79888616433E-01  0.13290468981E+00  0.19852172767E-01 0.  0.
         14    1    1    2    0    0  0.50214074932E-02  0.98982117503E-02  0.21226653446E-01  0.23953286739E-01  0.00000000000E+00 0. -1.
     999901    1    3    3    0    0  0.84724200826E-01  0.43328497352E-01  0.58661962987E-01  0.88707202345E+00  0.88000000000E+00 0.  1.
        -11    1    4    4    0    0 -0.66699064387E-01 -0.29917599015E-01 -0.59889079151E-01  0.94502861563E-01  0.51100000000E-03 0. -1.
         11    1    4    4    0    0 -0.23046543932E-01 -0.23309110087E-01 -0.19999537281E-01  0.38401828247E-01  0.51100000000E-03 0.  1.
</event>
<event>
 8    1  0.1166736E+005  0.1043930E+01  0.7957747E-01            NaN
         13   -1    0    0    0    0  0.00000000000E+00  0.00000000000E+00  0.74505805969E-08  0.10566000000E+00  0.10566000000E+00 0.  1.
     999900   -1    0    0    0    0 -0.00000000000E+00 -0.00000000000E+00 -0.74505805969E-08  0.93827000000E+00  0.93827000000E+00 0.  1.
     999902    2    1    2    0    0 -0.55307899507E-02 -0.20776942270E-01 -0.10824071443E-01  0.10198586168E+01  0.10195745028E+01 0.  0.
     999903    2    3    3    0    0  0.85996016922E-01  0.77337312584E-01 -0.52772545814E-01  0.12870024820E+00  0.20060843740E-01 0.  0.
         14    1    1    2    0    0  0.55307899507E-02  0.20776942270E-01  0.10824071443E-01  0.24071383221E-01  0.00000000000E+00 0.  1.
     999901    1    3    3    0    0 -0.91526806872E-01 -0.98114254854E-01  0.41948474371E-01  0.89115836858E+00  0.88000000000E+00 0. -1.
        -11    1    4    4    0    0  0.67502817707E-01  0.64655723846E-01 -0.50264600299E-01  0.10613097657E+00  0.51100000000E-03 0.  1.
         11    1    4    4    0    0  0.18493199215E-01  0.12681588738E-01 -0.25079455152E-02  0.22569271628E-01  0.51100000000E-03 0. -1.
</event>
<event>
 8    1  0.1166736E+005  0.1043930E+01  0.7957747E-01            NaN
         13   -1    0    0    0    0  0.00000000000E+00  0.00000000000E+00  0.74505805969E-08  0.10566000000E+00  0.10566000000E+00 0.  1.
     999900   -1    0    0    0    0 -0.00000000000E+00 -0.00000000000E+00 -0.74505805969E-08  0.93827000000E+00  0.93827000000E+00 0. -1.
     999902    2    1    2    0    0 -0.60895888629E-02  0.38657346229E-02 -0.19040719104E-01  0.10235688610E+01  0.10233663260E+01 0.  0.
     999903    2    3    3    0    0  0.17427758603E-01  0.83109656547E-01 -0.10382350291E+00  0.13563824142E+00  0.20185910850E-01 0.  0.
         14    1    1    2    0    0  0.60895888629E-02 -0.38657346229E-02  0.19040719104E-01  0.20361138983E-01  0.00000000000E+00 0.  1.
     999901    1    3    3    0    0 -0.23517347466E-01 -0.79243921924E-01  0.84782783806E-01  0.88793061960E+00  0.88000000000E+00 0.  1.
        -11    1    4    4    0    0  0.18893985305E-01  0.45148812642E-01 -0.52419854927E-01  0.71718200446E-01  0.51100000000E-03 0. -1.
         11    1    4    4    0    0 -0.14662267014E-02  0.37960843905E-01 -0.51403647983E-01  0.63920040971E-01  0.51100000000E-03 0.  1.
</event>
<event>
 8    1  0.1166736E+005  0.1043930E+01  0.7957747E-01            NaN
         13   -1    0    0    0    0  0.00000000000E+00  0.00000000000E+00  0.74505805969E-08  0.10566000000E+00  0.10566000000E+00 0. -1.
     999900   -1    0    0    0    0 -0.00000000000E+00 -0.00000000000E+00 -0.74505805969E-08  0.93827000000E+00  0.93827000000E+00 0.  1.
     999902    2    1    2    0    0  0.23533153109E-02  0.19730581555E-01 -0.12953945072E-01  0.10202099951E+01  0.10199342113E+01 0.  0.
     999903    2    3    3    0    0  0.12347823532E+00  0.39393208033E-01 -0.87498903346E-02  0.13168563456E+00  0.21583473589E-01 0.  0.
         14    1    1    2    0    0 -0.23533153109E-02 -0.19730581555E-01  0.12953945072E-01  0.23720004940E-01  0.00000000000E+00 0. -1.
     999901    1    3    3    0    0 -0.12112492001E+00 -0.19662626478E-01 -0.42040547371E-02  0.88852436050E+00  0.88000000000E+00 0.  1.
        -11    1    4    4    0    0  0.29771806025E-01  0.12767125049E-01 -0.11081328510E-01  0.34240573572E-01  0.51100000000E-03 0.  1.
         11    1    4    4    0    0  0.93706429293E-01  0.26626082984E-01  0.23314381750E-02  0.97445060988E-01  0.51100000000E-03 0. -1.
</event>
<event>
 8    1  0.1166736E+005  0.1043930E+01  0.7957747E-01            NaN
         13   -1    0    0    0    0  0.00000000000E+00  0.00000000000E+00  0.74505805969E-08  0.10566000000E+00  0.10566000000E+00 0. -1.
     999900   -1    0    0    0    0 -0.00000000000E+00 -0.00000000000E+00 -0.74505805969E-08  0.93827000000E+00  0.93827000000E+00 0.  1.
     999902    2    1    2    0    0  0.48163699457E-02  0.95387102370E-02 -0.21515476150E-01  0.10199070916E+01  0.10196241344E+01 0.  0.
     999903    2    3    3    0    0 -0.97758545807E-01 -0.42037627616E-01  0.68132321221E-01  0.12793261916E+00  0.20021149731E-01 0.  0.
         14    1    1    2    0    0 -0.48163699457E-02 -0.95387102370E-02  0.21515476150E-01  0.24022908367E-01  0.00000000000E+00 0. -1.
     999901    1    3    3    0    0  0.10257491575E+00  0.51576337853E-01 -0.89647797372E-01  0.89197447247E+00  0.88000000000E+00 0. -1.
        -11    1    4    4    0    0 -0.82766870820E-01 -0.29296256655E-01  0.61369127992E-01  0.10712169038E+00  0.51100000000E-03 0.  1.
         11    1    4    4    0    0 -0.14991674986E-01 -0.12741370961E-01  0.67631932290E-02  0.20810928776E-01  0.51100000000E-03 0. -1.
</event>
<event>
 8    1  0.1166736E+005  0.1043930E+01  0.7957747E-01            NaN
         13   -1    0    0    0    0  0.00000000000E+00  0.00000000000E+00  0.74505805969E-08  0.10566000000E+00  0.10566000000E+00 0. -1.
     999900   -1    0    0    0    0 -0.00000000000E+00 -0.00000000000E+00 -0.74505805969E-08  0.93827000000E+00  0.93827000000E+00 0.  1.
     999902    2    1    2    0    0  0.23118489815E-02  0.11795239193E-01 -0.19758829900E-01  0.10208024478E+01  0.10205404224E+01 0.  0.
     999903    2    3    3    0    0 -0.11712264084E-01 -0.18430685511E-01 -0.12982717038E+00  0.13331987225E+00  0.21029190907E-01 0.  0.
         14    1    1    2    0    0 -0.23118489815E-02 -0.11795239193E-01  0.19758829900E-01  0.23127552235E-01  0.00000000000E+00 0. -1.
     999901    1    3    3    0    0  0.14024113065E-01  0.30225924704E-01  0.11006834048E+00  0.88748257552E+00  0.88000000000E+00 0. -1.
        -11    1    4    4    0    0 -0.20738133096E-02  0.42008889093E-02 -0.10913526257E-01  0.11887571057E-01  0.51100000000E-03 0.  1.
         11    1    4    4    0    0 -0.96384507740E-02 -0.22631574421E-01 -0.11891364412E+00  0.12143230119E+00  0.51100000000E-03 0. -1.
</event>
<event>
 8    1  0.1166736E+005  0.1043930E+01  0.7957747E-01            NaN
         13   -1    0    0    0    0  0.00000000000E+00  0.00000000000E+00  0.74505805969E-08  0.10566000000E+00  0.10566000000E+00 0. -1.
     999900   -1    0    0    0    0 -0.00000000000E+00 -0.00000000000E+00 -0.74505805969E-08  0.93827000000E+00  0.93827000000E+00 0. -1.
     999902    2    1    2    0    0 -0.10335816168E-01  0.18623667306E-01  0.29166395569E-02  0.10224317009E+01  0.10222056574E+01 0.  0.
     999903    2    3    3    0    0 -0.10654614218E+00 -0.57128072527E-01  0.50663125662E-01  0.13267078923E+00  0.20471661645E-01 0.  0.
         14    1    1    2    0    0  0.10335816168E-01 -0.18623667306E-01 -0.29166395569E-02  0.21498299144E-01  0.00000000000E+00 0.  1.
     999901    1    3    3    0    0  0.96210326007E-01  0.75751739833E-01 -0.47746486105E-01  0.88976091162E+00  0.88000000000E+00 0. -1.
        -11    1    4    4    0    0 -0.86209467225E-01 -0.46865429836E-01  0.31981709083E-01  0.10320625751E+00  0.51100000000E-03 0. -1.
         11    1    4    4    0    0 -0.20336674951E-01 -0.10262642691E-01  0.18681416579E-01  0.29464531720E-01  0.51100000000E-03 0.  1.
</event>
<event>
 8    1  0.1166736E+005  0.1043930E+01  0.7957747E-01            NaN
         13   -1    0    0    0    0  0.00000000000E+00  0.00000000000E+00  0.74505805969E-08  0.10566000000E+00  0.10566000000E+00 0.  1.
     999900   -1    0    0    0    0 -0.00000000000E+00 -0.00000000000E+00 -0.74505805969E-08  0.93827000000E+00  0.93827000000E+00 0. -1.
     999902    2    1    2    0    0  0.19001051082E-01 -0.40480503973E-02 -0.79577312802E-02  0.10229359022E+01  0.10227204447E+01 0.  0.
     999903    2    3    3    0    0 -0.56469096144E-01  0.72873862204E-01 -0.92810198312E-01  0.13231102894E+00  0.19827174668E-01 0.  0.
         14    1    1    2    0    0 -0.19001051082E-01  0.40480503973E-02  0.79577312802E-02  0.20994097775E-01  0.00000000000E+00 0.  1.
     999901    1    3    3    0    0  0.75470147227E-01 -0.76921912601E-01  0.84852467032E-01  0.89062487329E+00  0.88000000000E+00 0.  1.
        -11    1    4    4    0    0 -0.59202588426E-02  0.98339518383E-02 -0.22220105521E-01  0.25015001177E-01  0.51100000000E-03 0.  1.
         11    1    4    4    0    0 -0.50548837302E-01  0.63039910366E-01 -0.70590092791E-01  0.10729602776E+00  0.51100000000E-03 0. -1.
</event>
<event>
 8    1  0.1166736E+005  0.1043930E+01  0.7957747E-01            NaN
         13   -1    0    0    0    0  0.00000000000E+00  0.00000000000E+00  0.74505805969E-08  0.10566000000E+00  0.10566000000E+00 0.  1.
     999900   -1    0    0    0    0 -0.00000000000E+00 -0.00000000000E+00 -0.74505805969E-08  0.93827000000E+00  0.93827000000E+00 0.  1.
     999902    2    1    2    0    0 -0.33127649940E-02  0.79643698352E-02 -0.21931334305E-01  0.10203633069E+01  0.10200911180E+01 0.  0.
     999903    2    3    3    0    0  0.50308022141E-01  0.39905916627E-02 -0.12155753281E+00  0.13311116735E+00  0.19887865046E-01 0.  0.
         14    1    1    2    0    0  0.33127649940E-02 -0.79643698352E-02  0.21931334305E-01  0.23566693089E-01  0.00000000000E+00 0.  1.
     999901    1    3    3    0    0 -0.53620787135E-01  0.39737781724E-02  0.99626198508E-01  0.88725213956E+00  0.88000000000E+00 0. -1.
        -11    1    4    4    0    0  0.39715284815E-01  0.39037631721E-02 -0.70952409545E-01  0.81406687416E-01  0.51100000000E-03 0.  1.
         11    1    4    4    0    0  0.10592737327E-01  0.86828490608E-04 -0.50605123268E-01  0.51704479934E-01  0.51100000000E-03 0. -1.
</event>
<event>
 8    1  0.1166736E+005  0.1043930E+01  0.7957747E-01            NaN
         13   -1    0    0    0    0  0.00000000000E+00  0.00000000000E+00  0.74505805969E-08  0.10566000000E+00  0.10566000000E+00 0.  1.
     999900   -1    0    0    0    0 -0.00000000000E+00 -0.00000000000E+00 -0.74505805969E-08  0.93827000000E+00  0.93827000000E+00 0.  1.
     999902    2    1    2    0    0 -0.12309178593E-01  0.20394109611E-01  0.37472301552E-02  0.10198161592E+01  0.10195310301E+01 0.  0.
     999903    2    3    3    0    0  0.42937203583E-01 -0.11481083776E+00 -0.27911037163E-01  0.12721614439E+00  0.19488188250E-01 0.  0.
         14    1    1    2    0    0  0.12309178593E-01 -0.20394109611E-01 -0.37472301552E-02  0.24113840804E-01  0.00000000000E+00 0.  1.
     999901    1    3    3    0    0 -0.55246382177E-01  0.13520494737E+00  0.31658267318E-01  0.89260001480E+00  0.88000000000E+00 0. -1.
        -11    1    4    4    0    0  0.19694073205E-01 -0.60608309141E-01 -0.49346301941E-02  0.63920539364E-01  0.51100000000E-03 0.  1.
         11    1    4    4    0    0  0.23243130379E-01 -0.54202528614E-01 -0.22976406969E-01  0.63295605030E-01  0.51100000000E-03 0. -1.
</event>
<event>
 8    1  0.1166736E+005  0.1043930E+01  0.7957747E-01            NaN
         13   -1    0    0    0    0  0.00000000000E+00  0.00000000000E+00  0.74505805969E-08  0.10566000000E+00  0.10566000000E+00 0.  1.
     999900   -1    0    0    0    0 -0.00000000000E+00 -0.00000000000E+00 -0.74505805969E-08  0.93827000000E+00  0.93827000000E+00 0.  1.
     999902    2    1    2    0    0 -0.13340100165E-01  0.16833486389E-01 -0.87399812935E-02  0.10207413862E+01  0.10204779594E+01 0.  0.
     999903    2    3    3    0    0 -0.62109589798E-01  0.11361865433E+00  0.10091345232E-03  0.13404865856E+00  0.34673230597E-01 0.  0.
         14    1    1    2    0    0  0.13340100165E-01 -0.16833486389E-01  0.87399812935E-02  0.23188613788E-01  0.00000000000E+00 0.  1.
     999901    1    3    3    0    0  0.48769489634E-01 -0.96785167945E-01 -0.88408947458E-02  0.88669272765E+00  0.88000000000E+00 0. -1.
        -11    1    4    4    0    0 -0.43875835093E-01  0.45173851279E-01 -0.39416590077E-02  0.63099631863E-01  0.51100000000E-03 0.  1.
         11    1    4    4    0    0 -0.18233754706E-01  0.68444803056E-01  0.40425724601E-02  0.70949026696E-01  0.51100000000E-03 0. -1.
</event>
<event>
 8    1  0.1166736E+005  0.1043930E+01  0.7957747E-01            NaN
         13   -1    0    0    0    0  0.00000000000E+00  0.00000000000E+00  0.74505805969E-08  0.10566000000E+00  0.10566000000E+00 0. -1.
     999900   -1    0    0    0    0 -0.00000000000E+00 -0.00000000000E+00 -0.74505805969E-08  0.93827000000E+00  0.93827000000E+00 0.  1.
     999902    2    1    2    0    0  0.21160821710E-01  0.65405550486E-02  0.17276754784E-01  0.10158400464E+01  0.10154516012E+01 0.  0.
     999903    2    3    3    0    0 -0.10519360255E+00  0.36369849935E-01 -0.50132868530E-01  0.12376421743E+00  0.20391591593E-01 0.  0.
         14    1    1    2    0    0 -0.21160821710E-01 -0.65405550486E-02 -0.17276754784E-01  0.28089953572E-01  0.00000000000E+00 0.  1.
     999901    1    3    3    0    0  0.12635442426E+00 -0.29829294887E-01  0.67409623314E-01  0.89207582900E+00  0.88000000000E+00 0. -1.
        -11    1    4    4    0    0 -0.32075769135E-01  0.21170648698E-01 -0.15529819186E-01  0.41454646746E-01  0.51100000000E-03 0.  1.
         11    1    4    4    0    0 -0.73117833415E-01  0.15199201237E-01 -0.34603049344E-01  0.82309570686E-01  0.51100000000E-03 0. -1.
</event>
<event>
 8    1  0.1166736E+005  0.1043930E+01  0.7957747E-01            NaN
         13   -1    0    0    0    0  0.00000000000E+00  0.00000000000E+00  0.74505805969E-08  0.10566000000E+00  0.10566000000E+00 0. -1.
     999900   -1    0    0    0    0 -0.00000000000E+00 -0.00000000000E+00 -0.74505805969E-08  0.93827000000E+00  0.93827000000E+00 0.  1.
     999902    2    1    2    0    0  0.13211352339E-01  0.19111788094E-01  0.43366983211E-02  0.10202951269E+01  0.10200213423E+01 0.  0.
     999903    2    3    3    0    0  0.12000013156E+00  0.12362044158E-01  0.51511577349E-01  0.13255931505E+00  0.19122701008E-01 0.  0.
         14    1    1    2    0    0 -0.13211352339E-01 -0.19111788094E-01 -0.43366983211E-02  0.23634873114E-01  0.00000000000E+00 0.  1.
     999901    1    3    3    0    0 -0.10678877922E+00  0.67497439363E-02 -0.47174879027E-01  0.88773581184E+00  0.88000000000E+00 0.  1.
        -11    1    4    4    0    0  0.65848559384E-01  0.16102476713E-01  0.30795368417E-01  0.74457627992E-01  0.51100000000E-03 0.  1.
         11    1    4    4    0    0  0.54151572179E-01 -0.37404325545E-02  0.20716208932E-01  0.58101687055E-01  0.51100000000E-03 0. -1.
</event>
<event>
 8    1  0.1166736E+005  0.1043930E+01  0.7957747E-01            NaN
         13   -1    0    0    0    0  0.00000000000E+00  0.00000000000E+00  0.74505805969E-08  0.10566000000E+00  0.10566000000E+00 0. -1.
     999900   -1    0    0    0    0 -0.00000000000E+00 -0.00000000000E+00 -0.74505805969E-08  0.93827000000E+00  0.93827000000E+00 0. -1.
     999902    2    1    2    0    0  0.46383089478E-02  0.54636421663E-04 -0.23598353786E-01  0.10198800687E+01  0.10195964669E+01 0.  0.
     999903    2    3    3    0    0  0.46638845769E-01 -0.58360059547E-01 -0.10747658003E+00  0.13296864208E+00  0.23417216655E-01 0.  0.
         14    1    1    2    0    0 -0.46383089478E-02 -0.54636421663E-04  0.23598353786E-01  0.24049931319E-01  0.00000000000E+00 0. -1.
     999901    1    3    3    0    0 -0.42000536821E-01  0.58414695969E-01  0.83878226247E-01  0.88691142660E+00  0.88000000000E+00 0.  1.
        -11    1    4    4    0    0  0.28057272078E-01 -0.29155344796E-01 -0.38809374491E-01  0.56068469892E-01  0.51100000000E-03 0.  1.
         11    1    4    4    0    0  0.18581573691E-01 -0.29204714751E-01 -0.68667205542E-01  0.76900172187E-01  0.51100000000E-03 0. -1.
</event>
<event>
 8    1  0.1166736E+005  0.1043930E+01  0.7957747E-01            NaN
         13   -1    0    0    0    0  0.00000000000E+00  0.00000000000E+00  0.74505805969E-08  0.10566000000E+00  0.10566000000E+00 0. -1.
     999900   -1    0    0    0    0 -0.00000000000E+00 -0.00000000000E+00 -0.74505805969E-08  0.93827000000E+00  0.93827000000E+00 0. -1.
     999902    2    1    2    0    0 -0.24473143605E-01 -0.23526840807E-02  0.25722102982E-02  0.10192098433E+01  0.10189100150E+01 0.  0.
     999903    2    3    3    0    0 -0.27788450666E-02  0.39453933338E-01 -0.12135641384E+00  0.12927909336E+00  0.20527298013E-01 0.  0.
         14    1    1    2    0    0  0.24473143605E-01  0.23526840807E-02 -0.25722102982E-02  0.24720156677E-01  0.00000000000E+00 0. -1.
     999901    1    3    3    0    0 -0.21694298539E-01 -0.41806617418E-01  0.12392862414E+00  0.88993074996E+00  0.88000000000E+00 0.  1.
        -11    1    4    4    0    0 -0.34579730847E-02  0.41501789791E-01 -0.10823537253E+00  0.11597203594E+00  0.51100000000E-03 0. -1.
         11    1    4    4    0    0  0.67912801805E-03 -0.20478564532E-02 -0.13121041313E-01  0.13307057415E-01  0.51100000000E-03 0.  1.
</event>
<event>
 8    1  0.1166736E+005  0.1043930E+01  0.7957747E-01            NaN
         13   -1    0    0    0    0  0.00000000000E+00  0.00000000000E+00  0.74505805969E-08  0.10566000000E+00  0.10566000000E+00 0.  1.
     999900   -1    0    0    0    0 -0.00000000000E+00 -0.00000000000E+00 -0.74505805969E-08  0.93827000000E+00  0.93827000000E+00 0.  1.
     999902    2    1    2    0    0 -0.76174420345E-02  0.14194065191E-01 -0.17557453243E-01  0.10201022625E+01  0.10198239382E+01 0.  0.
     999903    2    3    3    0    0  0.29938763101E-01  0.82223570335E-01 -0.98530080956E-01  0.13297484857E+00  0.17806977409E-01 0.  0.
         14    1    1    2    0    0  0.76174420345E-02 -0.14194065191E-01  0.17557453243E-01  0.23827737496E-01  0.00000000000E+00 0. -1.
     999901    1    3    3    0    0 -0.37556205136E-01 -0.68029505144E-01  0.80972627712E-01  0.88712741393E+00  0.88000000000E+00 0. -1.
        -11    1    4    4    0    0  0.21881960030E-01  0.71275786433E-01 -0.90188755811E-01  0.11701850581E+00  0.51100000000E-03 0. -1.
         11    1    4    4    0    0  0.80568030712E-02  0.10947783901E-01 -0.83413251446E-02  0.15956342759E-01  0.51100000000E-03 0.  1.
</event>
<event>
 8    1  0.1166736E+005  0.1043930E+01  0.7957747E-01            NaN
         13   -1    0    0    0    0  0.00000000000E+00  0.00000000000E+00  0.74505805969E-08  0.10566000000E+00  0.10566000000E+00 0.  1.
     999900   -1    0    0    0    0 -0.00000000000E+00 -0.00000000000E+00 -0.74505805969E-08  0.93827000000E+00  0.93827000000E+00 0. -1.
     999902    2    1    2    0    0 -0.65610471768E-02 -0.17829539773E-01 -0.90626329432E-02  0.10228807448E+01  0.10226641418E+01 0.  0.
     999903    2    3    3    0    0 -0.53808335125E-01  0.11337972325E+00  0.30972652238E-01  0.13100014686E+00  0.21246993180E-01 0.  0.
         14    1    1    2    0    0  0.65610471768E-02  0.17829539773E-01  0.90626329432E-02  0.21049255199E-01  0.00000000000E+00 0.  1.
     999901    1    3    3    0    0  0.47247287948E-01 -0.13120926302E+00 -0.40035285182E-01  0.89188059794E+00  0.88000000000E+00 0. -1.
        -11    1    4    4    0    0 -0.12481992298E-01  0.50609333701E-01  0.12255107339E-01  0.53549543101E-01  0.51100000000E-03 0. -1.
         11    1    4    4    0    0 -0.41326342827E-01  0.62770389544E-01  0.18717544899E-01  0.77450603761E-01  0.51100000000E-03 0.  1.
</event>
<event>
 8    1  0.1166736E+005  0.1043930E+01  0.7957747E-01            NaN
         13   -1    0    0    0    0  0.00000000000E+00  0.00000000000E+00  0.74505805969E-08  0.10566000000E+00  0.10566000000E+00 0.  1.
     999900   -1    0    0    0    0 -0.00000000000E+00 -0.00000000000E+00 -0.74505805969E-08  0.93827000000E+00  0.93827000000E+00 0. -1.
     999902    2    1    2    0    0 -0.16445752915E-01  0.14378964590E-01 -0.74391701542E-02  0.10208527674E+01  0.10205918940E+01 0.  0.
     999903    2    3    3    0    0 -0.89515101339E-01  0.68678620009E-01 -0.69068806214E-01  0.13401242422E+00  0.21427170596E-01 0.  0.
         14    1    1    2    0    0  0.16445752915E-01 -0.14378964590E-01  0.74391701542E-02  0.23077232595E-01  0.00000000000E+00 0.  1.
     999901    1    3    3    0    0  0.73069348424E-01 -0.54299655419E-01  0.61629636060E-01  0.88684034318E+00  0.88000000000E+00 0.  1.
        -11    1    4    4    0    0 -0.53536107349E-01  0.37320233205E-01 -0.27880837832E-01  0.70968421398E-01  0.51100000000E-03 0. -1.
         11    1    4    4    0    0 -0.35978993990E-01  0.31358386804E-01 -0.41187968383E-01  0.63044002823E-01  0.51100000000E-03 0.  1.
</event>
<event>
 8    1  0.1166736E+005  0.1043930E+01  0.7957747E-01            NaN
         13   -1    0    0    0    0  0.00000000000E+00  0.00000000000E+00  0.74505805969E-08  0.10566000000E+00  0.10566000000E+00 0. -1.
     999900   -1    0    0    0    0 -0.00000000000E+00 -0.00000000000E+00 -0.74505805969E-08  0.93827000000E+00  0.93827000000E+00 0. -1.
     999902    2    1    2    0    0 -0.21310308337E-01 -0.84554403506E-02  0.74768590173E-02  0.10198151263E+01  0.10195299724E+01 0.  0.
     999903    2    3    3    0    0  0.30837337196E-01  0.35835040567E-01  0.11923611266E+00  0.13011228017E+00  0.21837201973E-01 0.  0.
         14    1    1    2    0    0  0.21310308337E-01  0.84554403506E-02 -0.74768590173E-02  0.24114873703E-01  0.00000000000E+00 0. -1.
     999901    1    3    3    0    0 -0.52147645533E-01 -0.44290480917E-01 -0.11175925365E+00  0.88970284613E+00  0.88000000000E+00 0. -1.
        -11    1    4    4    0    0  0.33131625705E-01  0.36786054482E-01  0.11433774625E+00  0.12459654796E+00  0.51100000000E-03 0.  1.
         11    1    4    4    0    0 -0.22942885096E-02 -0.95101391489E-03  0.48983664164E-02  0.55157322071E-02  0.51100000000E-03 0. -1.
</event>
<event>
 8    1  0.1166736E+005  0.1043930E+01  0.7957747E-01            NaN
         13   -1    0    0    0    0  0.00000000000E+00  0.00000000000E+00  0.74505805969E-08  0.10566000000E+00  0.10566000000E+00 0. -1.
     999900   -1    0    0    0    0 -0.00000000000E+00 -0.00000000000E+00 -0.74505805969E-08  0.93827000000E+00  0.93827000000E+00 0. -1.
     999902    2    1    2    0    0  0.27867800136E-03 -0.23569215403E-01 -0.31839943023E-02  0.10201450595E+01  0.10198677458E+01 0.  0.
     999903    2    3    3    0    0  0.12260170347E+00 -0.63814129358E-02 -0.39948412284E-01  0.13075764920E+00  0.20731306195E-01 0.  0.
         14    1    1    2    0    0 -0.27867800136E-03  0.23569215403E-01  0.31839943023E-02  0.23784940527E-01  0.00000000000E+00 0. -1.
     999901    1    3    3    0    0 -0.12232302547E+00 -0.17187802468E-01  0.36764417982E-01  0.88938741027E+00  0.88000000000E+00 0.  1.
        -11    1    4    4    0    0  0.34282633852E-01 -0.49630900640E-02 -0.22476603033E-02  0.34716629224E-01  0.51100000000E-03 0.  1.
         11    1    4    4    0    0  0.88319069619E-01 -0.14183228718E-02 -0.37700751981E-01  0.96041019981E-01  0.51100000000E-03 0. -1.
</event>
<event>
 8    1  0.1166736E+005  0.1043930E+01  0.7957747E-01            NaN
         13   -1    0    0    0    0  0.00000000000E+00  0.00000000000E+00  0.74505805969E-08  0.10566000000E+00  0.10566000000E+00 0.  1.
     999900   -1    0    0    0    0 -0.00000000000E+00 -0.00000000000E+00 -0.74505805969E-08  0.93827000000E+00  0.93827000000E+00 0. -1.
     999902    2    1    2    0    0  0.10781864773E-01  0.16685302129E-01 -0.23275756136E-02  0.10239283620E+01  0.10237329852E+01 0.  0.
     999903    2    3    3    0    0 -0.67819312493E-01  0.36918015744E-02  0.11247554350E+00  0.13290269889E+00  0.19982265654E-01 0.  0.
         14    1    1    2    0    0 -0.10781864773E-01 -0.16685302129E-01  0.23275756136E-02  0.20001638017E-01  0.00000000000E+00 0. -1.
     999901    1    3    3    0    0  0.78601177266E-01  0.12993500555E-01 -0.11480311912E+00  0.89102566309E+00  0.88000000000E+00 0. -1.
        -11    1    4    4    0    0 -0.62774069124E-01  0.62202539276E-02  0.10981063319E+00  0.12664087648E+00  0.51100000000E-03 0. -1.
         11    1    4    4    0    0 -0.50452433690E-02 -0.25284523531E-02  0.26649103170E-02  0.62618224146E-02  0.51100000000E-03 0.  1.
</event>
<event>
 8    1  0.1166736E+005  0.1043930E+01  0.7957747E-01            NaN
         13   -1    0    0    0    0  0.00000000000E+00  0.00000000000E+00  0.74505805969E-08  0.10566000000E+00  0.10566000000E+00 0. -1.
     999900   -1    0    0    0    0 -0.00000000000E+00 -0.00000000000E+00 -0.74505805969E-08  0.93827000000E+00  0.93827000000E+00 0. -1.
     999902    2    1    2    0    0  0.19909184551E-01  0.10062422456E-01  0.58244712749E-02  0.10208745789E+01  0.10206142040E+01 0.  0.
     999903    2    3    3    0    0  0.88454713724E-01 -0.93559975858E-01  0.23019610231E-01  0.13198101736E+00  0.17645991739E-01 0.  0.
         14    1    1    2    0    0 -0.19909184551E-01 -0.10062422456E-01 -0.58244712749E-02  0.23055421071E-01  0.00000000000E+00 0.  1.
     999901    1    3    3    0    0 -0.68545529173E-01  0.10362239831E+00 -0.17195138956E-01  0.88889356157E+00  0.88000000000E+00 0. -1.
        -11    1    4    4    0    0  0.35735717891E-01 -0.25679630966E-01  0.76952434563E-02  0.44676200293E-01  0.51100000000E-03 0. -1.
         11    1    4    4    0    0  0.52718995832E-01 -0.67880344893E-01  0.15324366775E-01  0.87304817063E-01  0.51100000000E-03 0.  1.
</event>
<event>
 8    1  0.1166736E+005  0.1043930E+01  0.7957747E-01            NaN
         13   -1    0    0    0    0  0.00000000000E+00  0.00000000000E+00  0.74505805969E-08  0.10566000000E+00  0.10566000000E+00 0. -1.
     999900   -1    0    0    0    0 -0.00000000000E+00 -0.00000000000E+00 -0.74505805969E-08  0.93827000000E+00  0.93827000000E+00 0.  1.
     999902    2    1    2    0    0  0.19627173617E-01 -0.11993882980E-01  0.26472450669E-01  0.10088605002E+01  0.10082507818E+01 0.  0.
     999903    2    3    3    0    0 -0.83780076039E-02  0.11216739485E+00  0.37016356090E-01  0.11964090580E+00  0.17088599804E-01 0.  0.
         14    1    1    2    0    0 -0.19627173617E-01  0.11993882980E-01 -0.26472450669E-01  0.35069499819E-01  0.00000000000E+00 0.  1.
     999901    1    3    3    0    0  0.28005181221E-01 -0.12416127783E+00 -0.10543905421E-01  0.88921959438E+00  0.88000000000E+00 0. -1.
        -11    1    4    4    0    0 -0.12525095671E-01  0.62764651919E-01  0.17448596088E-01  0.66339989287E-01  0.51100000000E-03 0. -1.
         11    1    4    4    0    0  0.41470880669E-02  0.49402742933E-01  0.19567760002E-01  0.53300916514E-01  0.51100000000E-03 0.  1.
</event>
<event>
 8    1  0.1166736E+005  0.1043930E+01  0.7957747E-01            NaN
         13   -1    0    0    0    0  0.00000000000E+00  0.00000000000E+00  0.74505805969E-08  0.10566000000E+00  0.10566000000E+00 0. -1.
     999900   -1    0    0    0    0 -0.00000000000E+00 -0.00000000000E+00 -0.74505805969E-08  0.93827000000E+00  0.93827000000E+00 0. -1.
     999902    2    1    2    0    0  0.92724012916E-02  0.15266596315E-01 -0.15859468686E-01  0.10200434110E+01  0.10197636938E+01 0.  0.
     999903    2    3    3    0    0 -0.89897476909E-01  0.91183926185E-01 -0.20348994904E-01  0.13121369636E+00  0.20171459286E-01 0.  0.
         14    1    1    2    0    0 -0.92724012916E-02 -0.15266596315E-01  0.15859468686E-01  0.23886589036E-01  0.00000000000E+00 0.  1.
     999901    1    3    3    0    0  0.99169878201E-01 -0.75917329870E-01  0.44895262175E-02  0.88882971460E+00  0.88000000000E+00 0. -1.
        -11    1    4    4    0    0 -0.50188276664E-01  0.59207540062E-01 -0.20293429755E-01  0.80227678060E-01  0.51100000000E-03 0.  1.
         11    1    4    4    0    0 -0.39709200245E-01  0.31976386123E-01 -0.55565148850E-04  0.50986018300E-01  0.51100000000E-03 0. -1.
</event>
<event>
 8    1  0.1166736E+005  0.1043930E+01  0.7957747E-01            NaN
         13   -1    0    0    0    0  0.00000000000E+00  0.00000000000E+00  0.74505805969E-08  0.10566000000E+00  0.10566000000E+00 0. -1.
     999900   -1    0    0    0    0 -0.00000000000E+00 -0.00000000000E+00 -0.74505805969E-08  0.93827000000E+00  0.93827000000E+00 0.  1.
     999902    2    1    2    0    0 -0.17412692935E-01  0.31871237945E-02  0.16733441882E-01  0.10195708598E+01  0.10192798293E+01 0.  0.
     999903    2    3    3    0    0 -0.58490705839E-01 -0.11423911104E+00 -0.87247876088E-02  0.13045644354E+00  0.21703100764E-01 0.  0.
         14    1    1    2    0    0  0.17412692935E-01 -0.31871237945E-02 -0.16733441882E-01  0.24359140185E-01  0.00000000000E+00 0.  1.
     999901    1    3    3    0    0  0.41078012904E-01  0.11742623483E+00  0.25458229491E-01  0.88911441627E+00  0.88000000000E+00 0. -1.
        -11    1    4    4    0    0 -0.47141839978E-01 -0.10321411367E+00 -0.12569926741E-01  0.11416553997E+00  0.51100000000E-03 0.  1.
         11    1    4    4    0    0 -0.11348865862E-01 -0.11024997368E-01  0.38451391322E-02  0.16290903574E-01  0.51100000000E-03 0. -1.
</event>
<event>
 8    1  0.1166736E+005  0.1043930E+01  0.7957747E-01            NaN
         13   -1    0    0    0    0  0.00000000000E+00  0.00000000000E+00  0.74505805969E-08  0.10566000000E+00  0.10566000000E+00 0.  1.
     999900   -1    0    0    0    0 -0.00000000000E+00 -0.00000000000E+00 -0.74505805969E-08  0.93827000000E+00  0.93827000000E+00 0.  1.
     999902    2    1    2    0    0  0.11170644472E-01  0.12304586449E-01 -0.13722385792E-01  0.10223779695E+01  0.10221507827E+01 0.  0.
     999903    2    3    3    0    0  0.10143088201E-01 -0.12142152897E+00 -0.45527896581E-01  0.13170669440E+00  0.20683182742E-01 0.  0.
         14    1    1    2    0    0 -0.11170644472E-01 -0.12304586449E-01  0.13722385792E-01  0.21552030471E-01  0.00000000000E+00 0. -1.
     999901    1    3    3    0    0  0.10275562707E-02  0.13372611542E+00  0.31805510789E-01  0.89067127513E+00  0.88000000000E+00 0. -1.
        -11    1    4    4    0    0 -0.21085176635E-02 -0.73859331664E-01 -0.33542528587E-01  0.81148068773E-01  0.51100000000E-03 0.  1.
         11    1    4    4    0    0  0.12251605864E-01 -0.47562197305E-01 -0.11985367994E-01  0.50558625631E-01  0.51100000000E-03 0. -1.
</event>
<event>
 8    1  0.1166736E+005  0.1043930E+01  0.7957747E-01            NaN
         13   -1    0    0    0    0  0.00000000000E+00  0.00000000000E+00  0.74505805969E-08  0.10566000000E+00  0.10566000000E+00 0. -1.
     999900   -1    0    0    0    0 -0.00000000000E+00 -0.00000000000E+00 -0.74505805969E-08  0.93827000000E+00  0.93827000000E+00 0.  1.
     999902    2    1    2    0    0  0.10710237808E-01 -0.11366659697E-01 -0.16096114191E-01  0.10215024491E+01  0.10212562159E+01 0.  0.
     999903    2    3    3    0    0  0.13054720954E+00 -0.34057144158E-02 -0.19164475979E-01  0.13333934963E+00  0.18919096497E-01 0.  0.
         14    1    1    2    0    0 -0.10710237808E-01  0.11366659697E-01  0.16096114191E-01  0.22427550883E-01  0.00000000000E+00 0. -1.
     999901    1    3    3    0    0 -0.11983697173E+00 -0.79609452808E-02  0.30683617887E-02  0.88816309949E+00  0.88000000000E+00 0. -1.
        -11    1    4    4    0    0  0.29359433985E-01 -0.78441161970E-02 -0.81629985897E-03  0.30404506069E-01  0.51100000000E-03 0. -1.
         11    1    4    4    0    0  0.10118777555E+00  0.44384017812E-02 -0.18348176120E-01  0.10293484356E+00  0.51100000000E-03 0.  1.
</event>
<event>
 8    1  0.1166736E+005  0.1043930E+01  0.7957747E-01            NaN
         13   -1    0    0    0    0  0.00000000000E+00  0.00000000000E+00  0.74505805969E-08  0.10566000000E+00  0.10566000000E+00 0.  1.
     999900   -1    0    0    0    0 -0.00000000000E+00 -0.00000000000E+00 -0.74505805969E-08  0.93827000000E+00  0.93827000000E+00 0. -1.
     999902    2    1    2    0    0 -0.26710082004E-01 -0.21940664895E-02  0.36581912998E-03  0.10171274585E+01  0.10167742574E+01 0.  0.
     999903    2    3    3    0    0 -0.16436640068E-02  0.53147849940E-01 -0.11424960708E+00  0.12761762213E+00  0.20146691472E-01 0.  0.
         14    1    1    2    0    0  0.26710082004E-01  0.21940664895E-02 -0.36581912998E-03  0.26802541523E-01  0.00000000000E+00 0.  1.
     999901    1    3    3    0    0 -0.25066417998E-01 -0.55341916429E-01  0.11461542621E+00  0.88950983634E+00  0.88000000000E+00 0.  1.
        -11    1    4    4    0    0 -0.10509867462E-01  0.35844069729E-01 -0.77775836540E-01  0.86282075307E-01  0.51100000000E-03 0.  1.
         11    1    4    4    0    0  0.88662034548E-02  0.17303780211E-01 -0.36473770538E-01  0.41335546827E-01  0.51100000000E-03 0. -1.
</event>
<event>
 7    1  0.1166736E+005  0.1043930E+01  0.7957747E-01            NaN
         13   -1    0    0    0    0  0.00000000000E+00  0.00000000000E+00  0.74505805969E-08  0.10566000000E+00  0.10566000000E+00 0.  1.
     999900   -1    0    0    0    0 -0.00000000000E+00 -0.00000000000E+00 -0.74505805969E-08  0.93827000000E+00  0.93827000000E+00 0. -1.
     999903    2    1    2    0    0 -0.46785732563E-01  0.81447539899E-01 -0.48173300534E-01  0.10744409814E+00  0.20024005929E-01 0.  0.
         14    1    1    2    0    0  0.44993908667E-01 -0.18154014923E-01  0.23392100632E-01  0.53862885617E-01  0.00000000000E+00 0.  1.
     999901    1    1    2    0    0  0.17918238961E-02 -0.63293524976E-01  0.24781199901E-01  0.88262301624E+00  0.88000000000E+00 0.  1.
        -11    1    3    3    0    0 -0.15931990679E-01  0.31915043196E-01 -0.29132198525E-01  0.46058054899E-01  0.51100000000E-03 0.  1.
         11    1    3    3    0    0 -0.30853741884E-01  0.49532496703E-01 -0.19041102009E-01  0.61386043239E-01  0.51100000000E-03 0. -1.
</event>
<event>
 8    1  0.1166736E+005  0.1043930E+01  0.7957747E-01            NaN
         13   -1    0    0    0    0  0.00000000000E+00  0.00000000000E+00  0.74505805969E-08  0.10566000000E+00  0.10566000000E+00 0. -1.
     999900   -1    0    0    0    0 -0.00000000000E+00 -0.00000000000E+00 -0.74505805969E-08  0.93827000000E+00  0.93827000000E+00 0. -1.
     999902    2    1    2    0    0 -0.96559914528E-02 -0.73703521417E-02  0.18502918261E-01  0.10217959031E+01  0.10215561411E+01 0.  0.
     999903    2    3    3    0    0  0.36533830575E-02 -0.92762014010E-01  0.95048688582E-01  0.13425540806E+00  0.19290488387E-01 0.  0.
         14    1    1    2    0    0  0.96559914528E-02  0.73703521417E-02 -0.18502918261E-01  0.22134096905E-01  0.00000000000E+00 0.  1.
     999901    1    3    3    0    0 -0.13309374510E-01  0.85391661868E-01 -0.76545770322E-01  0.88754049503E+00  0.88000000000E+00 0. -1.
        -11    1    4    4    0    0  0.95907341877E-02 -0.75907208071E-01  0.81783647537E-01  0.11199425228E+00  0.51100000000E-03 0.  1.
         11    1    4    4    0    0 -0.59373511302E-02 -0.16854805939E-01  0.13265041046E-01  0.22261155779E-01  0.51100000000E-03 0. -1.
</event>
<event>
 8    1  0.1166736E+005  0.1043930E+01  0.7957747E-01            NaN
         13   -1    0    0    0    0  0.00000000000E+00  0.00000000000E+00  0.74505805969E-08  0.10566000000E+00  0.10566000000E+00 0. -1.
     999900   -1    0    0    0    0 -0.00000000000E+00 -0.00000000000E+00 -0.74505805969E-08  0.93827000000E+00  0.93827000000E+00 0. -1.
     999902    2    1    2    0    0 -0.12251265290E-01 -0.12391060510E-01 -0.15355204994E-01  0.10207047077E+01  0.10204404373E+01 0.  0.
     999903    2    3    3    0    0 -0.11401455602E+00  0.16627500417E-01 -0.63260418017E-01  0.13307147621E+00  0.20744747259E-01 0.  0.
         14    1    1    2    0    0  0.12251265290E-01  0.12391060510E-01  0.15355204994E-01  0.23225292295E-01  0.00000000000E+00 0. -1.
     999901    1    3    3    0    0  0.10176329073E+00 -0.29018560927E-01  0.47905213023E-01  0.88763323149E+00  0.88000000000E+00 0.  1.
        -11    1    4    4    0    0 -0.72400886261E-01  0.24325106792E-02 -0.46115391129E-01  0.85876049395E-01  0.51100000000E-03 0. -1.
         11    1    4    4    0    0 -0.41613669758E-01  0.14194989738E-01 -0.17145026888E-01  0.47195426816E-01  0.51100000000E-03 0.  1.
</event>
<event>
 8    1  0.1166736E+005  0.1043930E+01  0.7957747E-01            NaN
         13   -1    0    0    0    0  0.00000000000E+00  0.00000000000E+00  0.74505805969E-08  0.10566000000E+00  0.10566000000E+00 0.  1.
     999900   -1    0    0    0    0 -0.00000000000E+00 -0.00000000000E+00 -0.74505805969E-08  0.93827000000E+00  0.93827000000E+00 0. -1.
     999902    2    1    2    0    0 -0.44498167301E-03 -0.18251630728E-01 -0.14302887670E-01  0.10207374877E+01  0.10204739713E+01 0.  0.
     999903    2    3    3    0    0 -0.12341682228E+00 -0.34462972140E-01 -0.25589116938E-01  0.13196740482E+00  0.18471181868E-01 0.  0.
         14    1    1    2    0    0  0.44498167301E-03  0.18251630728E-01  0.14302887670E-01  0.23192512340E-01  0.00000000000E+00 0.  1.
     999901    1    3    3    0    0  0.12297184061E+00  0.16211341412E-01  0.11286229268E-01  0.88877008284E+00  0.88000000000E+00 0.  1.
        -11    1    4    4    0    0 -0.53395411519E-01 -0.15173809420E-01 -0.20433353832E-01  0.59153170105E-01  0.51100000000E-03 0. -1.
         11    1    4    4    0    0 -0.70021410763E-01 -0.19289162720E-01 -0.51557631061E-02  0.72814234720E-01  0.51100000000E-03 0.  1.
</event>
<event>
 8    1  0.1166736E+005  0.1043930E+01  0.7957747E-01            NaN
         13   -1    0    0    0    0  0.00000000000E+00  0.00000000000E+00  0.74505805969E-08  0.10566000000E+00  0.10566000000E+00 0. -1.
     999900   -1    0    0    0    0 -0.00000000000E+00 -0.00000000000E+00 -0.74505805969E-08  0.93827000000E+00  0.93827000000E+00 0.  1.
     999902    2    1    2    0    0 -0.16045025344E-01 -0.17490551997E-01  0.29077480178E-02  0.10200172995E+01  0.10197369631E+01 0.  0.
     999903    2    3    3    0    0 -0.48737016067E-01  0.10805485468E+00 -0.47200331551E-01  0.12909573446E+00  0.19664409497E-01 0.  0.
         14    1    1    2    0    0  0.16045025344E-01  0.17490551997E-01 -0.29077480178E-02  0.23912700516E-01  0.00000000000E+00 0. -1.
     999901    1    3    3    0    0  0.32691990723E-01 -0.12554540668E+00  0.50108079569E-01  0.89092156503E+00  0.88000000000E+00 0. -1.
        -11    1    4    4    0    0 -0.89211608933E-02  0.42713619767E-01 -0.17397157400E-01  0.46978320871E-01  0.51100000000E-03 0. -1.
         11    1    4    4    0    0 -0.39815855173E-01  0.65341234913E-01 -0.29803174152E-01  0.82117413584E-01  0.51100000000E-03 0.  1.
</event>
<event>
 8    1  0.1166736E+005  0.1043930E+01  0.7957747E-01            NaN
         13   -1    0    0    0    0  0.00000000000E+00  0.00000000000E+00  0.74505805969E-08  0.10566000000E+00  0.10566000000E+00 0. -1.
     999900   -1    0    0    0    0 -0.00000000000E+00 -0.00000000000E+00 -0.74505805969E-08  0.93827000000E+00  0.93827000000E+00 0. -1.
     999902    2    1    2    0    0 -0.10909512983E-01 -0.27069856482E-01  0.11166818077E-01  0.10126811211E+01  0.10121988741E+01 0.  0.
     999903    2    3    3    0    0  0.52359082381E-01 -0.11250887116E+00 -0.87673334646E-02  0.12605825274E+00  0.20349382068E-01 0.  0.
         14    1    1    2    0    0  0.10909512983E-01  0.27069856482E-01 -0.11166818077E-01  0.31248878851E-01  0.00000000000E+00 0.  1.
     999901    1    3    3    0    0 -0.63268595364E-01  0.85439014677E-01  0.19934151541E-01  0.88662286841E+00  0.88000000000E+00 0.  1.
        -11    1    4    4    0    0  0.32001404293E-01 -0.50155914324E-01  0.22754169235E-02  0.59541114043E-01  0.51100000000E-03 0.  1.
         11    1    4    4    0    0  0.20357678088E-01 -0.62352956836E-01 -0.11042750388E-01  0.66517138697E-01  0.51100000000E-03 0. -1.
</event>
<event>
 8    1  0.1166736E+005  0.1043930E+01  0.7957747E-01            NaN
         13   -1    0    0    0    0  0.00000000000E+00  0.00000000000E+00  0.74505805969E-08  0.10566000000E+00  0.10566000000E+00 0.  1.
     999900   -1    0    0    0    0 -0.00000000000E+00 -0.00000000000E+00 -0.74505805969E-08  0.93827000000E+00  0.93827000000E+00 0. -1.
     999902    2    1    2    0    0 -0.17702015119E-01 -0.13109266853E-01  0.83448015199E-02  0.10203747473E+01  0.10201028257E+01 0.  0.
     999903    2    3    3    0    0 -0.10472235255E+00 -0.33433384870E-01 -0.70831798031E-01  0.13231250692E+00  0.20121966305E-01 0.  0.
         14    1    1    2    0    0  0.17702015119E-01  0.13109266853E-01 -0.83448015199E-02  0.23555252686E-01  0.00000000000E+00 0. -1.
     999901    1    3    3    0    0  0.87020337428E-01  0.20324118017E-01  0.79176599551E-01  0.88806224040E+00  0.88000000000E+00 0.  1.
        -11    1    4    4    0    0 -0.77761404611E-01 -0.33127782842E-01 -0.57503463338E-01  0.10223108852E+00  0.51100000000E-03 0. -1.
         11    1    4    4    0    0 -0.26960947935E-01 -0.30560202817E-03 -0.13328334693E-01  0.30081418399E-01  0.51100000000E-03 0.  1.
</event>
<event>
 8    1  0.1166736E+005  0.1043930E+01  0.7957747E-01            NaN
         13   -1    0    0    0    0  0.00000000000E+00  0.00000000000E+00  0.74505805969E-08  0.10566000000E+00  0.10566000000E+00 0. -1.
     999900   -1    0    0    0    0 -0.00000000000E+00 -0.00000000000E+00 -0.74505805969E-08  0.93827000000E+00  0.93827000000E+00 0.  1.
     999902    2    1    2    0    0 -0.11652232870E-01 -0.22954289604E-01  0.55173946058E-02  0.10176029116E+01  0.10172622917E+01 0.  0.
     999903    2    3    3    0    0  0.65327644102E-01  0.64422705958E-01 -0.83546009328E-01  0.12547459640E+00  0.18599799442E-01 0.  0.
         14    1    1    2    0    0  0.11652232870E-01  0.22954289604E-01 -0.55173946058E-02  0.26327088432E-01  0.00000000000E+00 0.  1.
     999901    1    3    3    0    0 -0.76979876972E-01 -0.87376995561E-01  0.89063403933E-01  0.89212831517E+00  0.88000000000E+00 0. -1.
        -11    1    4    4    0    0  0.31319938437E-01  0.43767206330E-01 -0.48426298608E-01  0.72400790130E-01  0.51100000000E-03 0. -1.
         11    1    4    4    0    0  0.34007705665E-01  0.20655499628E-01 -0.35119710719E-01  0.53073806265E-01  0.51100000000E-03 0.  1.
</event>
<event>
 8    1  0.1166736E+005  0.1043930E+01  0.7957747E-01            NaN
         13   -1    0    0    0    0  0.00000000000E+00  0.00000000000E+00  0.74505805969E-08  0.10566000000E+00  0.10566000000E+00 0.  1.
     999900   -1    0    0    0    0 -0.00000000000E+00 -0.00000000000E+00 -0.74505805969E-08  0.93827000000E+00  0.93827000000E+00 0.  1.
     999902    2    1    2    0    0 -0.12223437359E-01  0.21080672297E-01 -0.89747009922E-03  0.10195453200E+01  0.10192536715E+01 0.  0.
     999903    2    3    3    0    0  0.30344850085E-01  0.10111390907E+00  0.75871223635E-01  0.13156400804E+00  0.20194382920E-01 0.  0.
         14    1    1    2    0    0  0.12223437359E-01 -0.21080672297E-01  0.89747009922E-03  0.24384679985E-01  0.00000000000E+00 0.  1.
     999901    1    3    3    0    0 -0.42568287444E-01 -0.80033236770E-01 -0.76768693734E-01  0.88798131198E+00  0.88000000000E+00 0.  1.
        -11    1    4    4    0    0  0.21866516382E-01  0.59126019073E-01  0.33843592355E-01  0.71551942913E-01  0.51100000000E-03 0.  1.
         11    1    4    4    0    0  0.84783337029E-02  0.41987889995E-01  0.42027631279E-01  0.60012065125E-01  0.51100000000E-03 0. -1.
</event>
<event>
 8    1  0.1166736E+005  0.1043930E+01  0.7957747E-01            NaN
         13   -1    0    0    0    0  0.00000000000E+00  0.00000000000E+00  0.74505805969E-08  0.10566000000E+00  0.10566000000E+00 0. -1.
     999900   -1    0    0    0    0 -0.00000000000E+00 -0.00000000000E+00 -0.74505805969E-08  0.93827000000E+00  0.93827000000E+00 0. -1.
     999902    2    1    2    0    0 -0.14017554258E-03 -0.22024042064E-01  0.70995531239E-02  0.10207895218E+01  0.10205272000E+01 0.  0.
     999903    2    3    3    0    0 -0.96947255357E-02 -0.12700904551E+00 -0.34468218065E-01  0.13352348502E+00  0.20375908585E-01 0.  0.
         14    1    1    2    0    0  0.14017554258E-03  0.22024042064E-01 -0.70995531239E-02  0.23140478227E-01  0.00000000000E+00 0. -1.
     999901    1    3    3    0    0  0.95545499931E-02  0.10498500345E+00  0.41567771189E-01  0.88726603675E+00  0.88000000000E+00 0.  1.
        -11    1    4    4    0    0 -0.13277253709E-01 -0.60546917018E-01 -0.22191141535E-01  0.65840128417E-01  0.51100000000E-03 0. -1.
         11    1    4    4    0    0  0.35825281731E-02 -0.66462128492E-01 -0.12277076530E-01  0.67683356602E-01  0.51100000000E-03 0.  1.
</event>
<event>
 8    1  0.1166736E+005  0.1043930E+01  0.7957747E-01            NaN
         13   -1    0    0    0    0  0.00000000000E+00  0.00000000000E+00  0.74505805969E-08  0.10566000000E+00  0.10566000000E+00 0. -1.
     999900   -1    0    0    0    0 -0.00000000000E+00 -0.00000000000E+00 -0.74505805969E-08  0.93827000000E+00  0.93827000000E+00 0.  1.
     999902    2    1    2    0    0  0.16862043287E-01 -0.97929527337E-02 -0.12736730340E-01  0.10206393425E+01  0.10203735653E+01 0.  0.
     999903    2    3    3    0    0 -0.47645524086E-01  0.10133471511E+00  0.59446811760E-01  0.12838318614E+00  0.20236071828E-01 0.  0.
         14    1    1    2    0    0 -0.16862043287E-01  0.97929527337E-02  0.12736730340E-01  0.23290657501E-01  0.00000000000E+00 0.  1.
     999901    1    3    3    0    0  0.64507567373E-01 -0.11112766785E+00 -0.72183542100E-01  0.89225615636E+00  0.88000000000E+00 0. -1.
        -11    1    4    4    0    0 -0.39571575314E-01  0.83301427660E-01  0.39578262418E-01  0.10035804602E+00  0.51100000000E-03 0. -1.
         11    1    4    4    0    0 -0.80739487723E-02  0.18033287452E-01  0.19868549342E-01  0.28025140125E-01  0.51100000000E-03 0.  1.
</event>
<event>
 8    1  0.1166736E+005  0.1043930E+01  0.7957747E-01            NaN
         13   -1    0    0    0    0  0.00000000000E+00  0.00000000000E+00  0.74505805969E-08  0.10566000000E+00  0.10566000000E+00 0.  1.
     999900   -1    0    0    0    0 -0.00000000000E+00 -0.00000000000E+00 -0.74505805969E-08  0.93827000000E+00  0.93827000000E+00 0. -1.
     999902    2    1    2    0    0 -0.19986523982E-01  0.81985911420E-02 -0.87456052075E-02  0.10206241285E+01  0.10203579999E+01 0.  0.
     999903    2    3    3    0    0 -0.85783206746E-01  0.97388831691E-01 -0.23229301722E-01  0.13355373670E+00  0.21299226077E-01 0.  0.
         14    1    1    2    0    0  0.19986523982E-01 -0.81985911420E-02  0.87456052075E-02  0.23305871536E-01  0.00000000000E+00 0.  1.
     999901    1    3    3    0    0  0.65796682763E-01 -0.89190240549E-01  0.14483696514E-01  0.88707039176E+00  0.88000000000E+00 0.  1.
        -11    1    4    4    0    0 -0.34062657135E-01  0.24889115813E-01 -0.11474016583E-01  0.43722384137E-01  0.51100000000E-03 0.  1.
         11    1    4    4    0    0 -0.51720549610E-01  0.72499715878E-01 -0.11755285138E-01  0.89831352567E-01  0.51100000000E-03 0. -1.
</event>
<event>
 8    1  0.1166736E+005  0.1043930E+01  0.7957747E-01            NaN
         13   -1    0    0    0    0  0.00000000000E+00  0.00000000000E+00  0.74505805969E-08  0.10566000000E+00  0.10566000000E+00 0.  1.
     999900   -1    0    0    0    0 -0.00000000000E+00 -0.00000000000E+00 -0.74505805969E-08  0.93827000000E+00  0.93827000000E+00 0. -1.
     999902    2    1    2    0    0 -0.10200850674E-01  0.18424352914E-01 -0.10659697458E-01  0.10203261172E+01  0.10200530585E+01 0.  0.
     999903    2    3    3    0    0 -0.22749013348E-01  0.96913199017E-01 -0.86615831036E-01  0.13348493095E+00  0.20155367830E-01 0.  0.
         14    1    1    2    0    0  0.10200850674E-01 -0.18424352914E-01  0.10659697458E-01  0.23603882830E-01  0.00000000000E+00 0. -1.
     999901    1    3    3    0    0  0.12548162673E-01 -0.78488846103E-01  0.75956133578E-01  0.88684118622E+00  0.88000000000E+00 0.  1.
        -11    1    4    4    0    0 -0.15971271316E-04  0.68124538052E-02 -0.13907020623E-01  0.15494390131E-01  0.51100000000E-03 0. -1.
         11    1    4    4    0    0 -0.22733042077E-01  0.90100745212E-01 -0.72708810413E-01  0.11799054082E+00  0.51100000000E-03 0.  1.
</event>
<event>
 8    1  0.1166736E+005  0.1043930E+01  0.7957747E-01            NaN
         13   -1    0    0    0    0  0.00000000000E+00  0.00000000000E+00  0.74505805969E-08  0.10566000000E+00  0.10566000000E+00 0. -1.
     999900   -1    0    0    0    0 -0.00000000000E+00 -0.00000000000E+00 -0.74505805969E-08  0.93827000000E+00  0.93827000000E+00 0.  1.
     999902    2    1    2    0    0 -0.22170874581E-01  0.53001094384E-02 -0.41169715087E-02  0.10207656245E+01  0.10205027544E+01 0.  0.
     999903    2    3    3    0    0 -0.69112701219E-02  0.43162190415E-01  0.12125467375E+00  0.13094292182E+00  0.23078399671E-01 0.  0.
         14    1    1    2    0    0  0.22170874581E-01 -0.53001094384E-02  0.41169715087E-02  0.23164375540E-01  0.00000000000E+00 0. -1.
     999901    1    3    3    0    0 -0.15259604459E-01 -0.37862080976E-01 -0.12537164526E+00  0.88982270264E+00  0.88000000000E+00 0.  1.
        -11    1    4    4    0    0  0.27552278531E-02  0.31583365828E-01  0.99769875880E-01  0.10468710299E+00  0.51100000000E-03 0. -1.
         11    1    4    4    0    0 -0.96664979750E-02  0.11578824586E-01  0.21484797871E-01  0.26255818830E-01  0.51100000000E-03 0.  1.
</event>
<event>
 8    1  0.1166736E+005  0.1043930E+01  0.7957747E-01            NaN
         13   -1    0    0    0    0  0.00000000000E+00  0.00000000000E+00  0.74505805969E-08  0.10566000000E+00  0.10566000000E+00 0.  1.
     999900   -1    0    0    0    0 -0.00000000000E+00 -0.00000000000E+00 -0.74505805969E-08  0.93827000000E+00  0.93827000000E+00 0.  1.
     999902    2    1    2    0    0 -0.74826184444E-02 -0.21740683014E-01 -0.31219998193E-02  0.10207266865E+01  0.10204629218E+01 0.  0.
     999903    2    3    3    0    0 -0.39978962439E-01 -0.11739908314E+00 -0.45896171862E-01  0.13391432091E+00  0.21112190635E-01 0.  0.
         14    1    1    2    0    0  0.74826184444E-02  0.21740683014E-01  0.31219998193E-02  0.23203313547E-01  0.00000000000E+00 0. -1.
     999901    1    3    3    0    0  0.32496343995E-01  0.95658400124E-01  0.42774172043E-01  0.88681236554E+00  0.88000000000E+00 0. -1.
        -11    1    4    4    0    0 -0.68679655869E-02 -0.52374909801E-01 -0.18568086628E-01  0.55994062989E-01  0.51100000000E-03 0. -1.
         11    1    4    4    0    0 -0.33110996852E-01 -0.65024173337E-01 -0.27328085234E-01  0.77920257920E-01  0.51100000000E-03 0.  1.
</event>
<event>
 8    1  0.1166736E+005  0.1043930E+01  0.7957747E-01            NaN
         13   -1    0    0    0    0  0.00000000000E+00  0.00000000000E+00  0.74505805969E-08  0.10566000000E+00  0.10566000000E+00 0. -1.
     999900   -1    0    0    0    0 -0.00000000000E+00 -0.00000000000E+00 -0.74505805969E-08  0.93827000000E+00  0.93827000000E+00 0. -1.
     999902    2    1    2    0    0  0.56709518364E-02  0.22820055009E-01  0.42820142961E-02  0.10200291579E+01  0.10197491029E+01 0.  0.
     999903    2    3    3    0    0  0.27956235278E-01 -0.11035080056E+00 -0.54258987703E-01  0.12780824383E+00  0.20786033081E-01 0.  0.
         14    1    1    2    0    0 -0.56709518364E-02 -0.22820055009E-01 -0.42820142961E-02  0.23900842073E-01  0.00000000000E+00 0.  1.
     999901    1    3    3    0    0 -0.22285283442E-01  0.13317085556E+00  0.58541001999E-01  0.89222091409E+00  0.88000000000E+00 0.  1.
        -11    1    4    4    0    0  0.28863041014E-01 -0.80086839891E-01 -0.35861396165E-01  0.92375743116E-01  0.51100000000E-03 0.  1.
         11    1    4    4    0    0 -0.90680573599E-03 -0.30263960664E-01 -0.18397591538E-01  0.35432500718E-01  0.51100000000E-03 0. -1.
</event>
<event>
 8    1  0.1166736E+005  0.1043930E+01  0.7957747E-01            NaN
         13   -1    0    0    0    0  0.00000000000E+00  0.00000000000E+00  0.74505805969E-08  0.10566000000E+00  0.10566000000E+00 0. -1.
     999900   -1    0    0    0    0 -0.00000000000E+00 -0.00000000000E+00 -0.74505805969E-08  0.93827000000E+00  0.93827000000E+00 0. -1.
     999902    2    1    2    0    0  0.55666018482E-03 -0.20144671615E-01  0.13142978553E-01  0.10198705829E+01  0.10195867547E+01 0.  0.
     999903    2    3    3    0    0 -0.11468377639E+00 -0.19907581161E-01  0.57448129531E-01  0.13125178904E+00  0.19443872642E-01 0.  0.
         14    1    1    2    0    0 -0.55666018482E-03  0.20144671615E-01 -0.13142978553E-01  0.24059417081E-01  0.00000000000E+00 0.  1.
     999901    1    3    3    0    0  0.11524043658E+00 -0.23709045441E-03 -0.44305150978E-01  0.88861879388E+00  0.88000000000E+00 0. -1.
        -11    1    4    4    0    0 -0.16773263452E-01  0.24671516133E-02  0.13239421649E-01  0.21516798333E-01  0.51100000000E-03 0.  1.
         11    1    4    4    0    0 -0.97910512943E-01 -0.22374732774E-01  0.44208707882E-01  0.10973499070E+00  0.51100000000E-03 0. -1.
</event>
<event>
 8    1  0.1166736E+005  0.1043930E+01  0.7957747E-01            NaN
         13   -1    0    0    0    0  0.00000000000E+00  0.00000000000E+00  0.74505805969E-08  0.10566000000E+00  0.10566000000E+00 0. -1.
     999900   -1    0    0    0    0 -0.00000000000E+00 -0.00000000000E+00 -0.74505805969E-08  0.93827000000E+00  0.93827000000E+00 0.  1.
     999902    2    1    2    0    0 -0.19446963472E-01 -0.54885991185E-02 -0.64056883174E-02  0.10227323126E+01  0.10225126118E+01 0.  0.
     999903    2    3    3    0    0  0.35671525687E-01  0.10115810638E+00 -0.74404261084E-01  0.13198241866E+00  0.19440795691E-01 0.  0.
         14    1    1    2    0    0  0.19446963472E-01  0.54885991185E-02  0.64056883174E-02  0.21197687407E-01  0.00000000000E+00 0. -1.
     999901    1    3    3    0    0 -0.55118489159E-01 -0.10664670550E+00  0.67998572767E-01  0.89074989393E+00  0.88000000000E+00 0.  1.
        -11    1    4    4    0    0  0.71720235428E-02  0.54106162268E-02 -0.78628704959E-02  0.11949834438E-01  0.51100000000E-03 0.  1.
         11    1    4    4    0    0  0.28499502144E-01  0.95747490154E-01 -0.66541390588E-01  0.12003258422E+00  0.51100000000E-03 0. -1.
</event>
<event>
 8    1  0.1166736E+005  0.1043930E+01  0.7957747E-01            NaN
         13   -1    0    0    0    0  0.00000000000E+00  0.00000000000E+00  0.74505805969E-08  0.10566000000E+00  0.10566000000E+00 0.  1.
     999900   -1    0    0    0    0 -0.00000000000E+00 -0.00000000000E+00 -0.74505805969E-08  0.93827000000E+00  0.93827000000E+00 0. -1.
     999902    2    1    2    0    0  0.24205253895E-01 -0.54230764296E-02  0.14696513587E-02  0.10190811781E+01  0.10187781818E+01 0.  0.
     999903    2    3    3    0    0  0.95513444415E-01 -0.47672469277E-01 -0.74866879152E-01  0.13189622833E+00  0.19901835659E-01 0.  0.
         14    1    1    2    0    0 -0.24205253895E-01  0.54230764296E-02 -0.14696513587E-02  0.24848821887E-01  0.00000000000E+00 0.  1.
     999901    1    3    3    0    0 -0.71308190520E-01  0.42249392847E-01  0.76336530511E-01  0.88718494978E+00  0.88000000000E+00 0.  1.
        -11    1    4    4    0    0  0.26399841458E-01 -0.36917427191E-02 -0.18935124281E-01  0.32701385993E-01  0.51100000000E-03 0.  1.
         11    1    4    4    0    0  0.69113602957E-01 -0.43980726558E-01 -0.55931754871E-01  0.99194842337E-01  0.51100000000E-03 0. -1.
</event>
<event>
 8    1  0.1166736E+005  0.1043930E+01  0.7957747E-01            NaN
         13   -1    0    0    0    0  0.00000000000E+00  0.00000000000E+00  0.74505805969E-08  0.10566000000E+00  0.10566000000E+00 0.  1.
     999900   -1    0    0    0    0 -0.00000000000E+00 -0.00000000000E+00 -0.74505805969E-08  0.93827000000E+00  0.93827000000E+00 0.  1.
     999902    2    1    2    0    0 -0.17612006297E-02  0.14195853925E-01  0.19382791255E-01  0.10198402368E+01  0.10195556835E+01 0.  0.
     999903    2    3    3    0    0  0.45615905863E-01  0.39887841244E-03  0.12273811348E+00  0.13241853915E+00  0.19724478174E-01 0.  0.
         14    1    1    2    0    0  0.17612006297E-02 -0.14195853925E-01 -0.19382791255E-01  0.24089763244E-01  0.00000000000E+00 0. -1.
     999901    1    3    3    0    0 -0.47377106492E-01  0.13796975512E-01 -0.10335532222E+00  0.88742169761E+00  0.88000000000E+00 0.  1.
        -11    1    4    4    0    0  0.18725573350E-01 -0.86505178403E-02  0.62793084414E-01  0.66096226272E-01  0.51100000000E-03 0. -1.
         11    1    4    4    0    0  0.26890332513E-01  0.90493962528E-02  0.59945029061E-01  0.66322312877E-01  0.51100000000E-03 0.  1.
</event>
<event>
 8    1  0.1166736E+005  0.1043930E+01  0.7957747E-01            NaN
         13   -1    0    0    0    0  0.00000000000E+00  0.00000000000E+00  0.74505805969E-08  0.10566000000E+00  0.10566000000E+00 0. -1.
     999900   -1    0    0    0    0 -0.00000000000E+00 -0.00000000000E+00 -0.74505805969E-08  0.93827000000E+00  0.93827000000E+00 0.  1.
     999902    2    1    2    0    0 -0.10417693523E-01  0.19220222114E-01 -0.86605072612E-02  0.10204151183E+01  0.10201441388E+01 0.  0.
     999903    2    3    3    0    0  0.11020209732E+00  0.66699925721E-01  0.10016192923E-01  0.13072288198E+00  0.19868704202E-01 0.  0.
         14    1    1    2    0    0  0.10417693523E-01 -0.19220222114E-01  0.86605072612E-02  0.23514881723E-01  0.00000000000E+00 0. -1.
     999901    1    3    3    0    0 -0.12061979085E+00 -0.47479703607E-01 -0.18676700184E-01  0.88969223630E+00  0.88000000000E+00 0.  1.
        -11    1    4    4    0    0  0.88073006473E-01  0.49447103925E-01  0.15322248097E-01  0.10216116172E+00  0.51100000000E-03 0.  1.
         11    1    4    4    0    0  0.22129090850E-01  0.17252821796E-01 -0.53060551741E-02  0.28561720262E-01  0.51100000000E-03 0. -1.
</event>
<event>
 8    1  0.1166736E+005  0.1043930E+01  0.7957747E-01            NaN
         13   -1    0    0    0    0  0.00000000000E+00  0.00000000000E+00  0.74505805969E-08  0.10566000000E+00  0.10566000000E+00 0. -1.
     999900   -1    0    0    0    0 -0.00000000000E+00 -0.00000000000E+00 -0.74505805969E-08  0.93827000000E+00  0.93827000000E+00 0. -1.
     999902    2    1    2    0    0 -0.20909921671E-01 -0.63514740916E-02  0.82077896568E-02  0.10205861816E+01  0.10203191756E+01 0.  0.
     999903    2    3    3    0    0  0.43596835974E-01  0.21259465052E-01  0.11973761668E+00  0.13077587142E+00  0.20312132763E-01 0.  0.
         14    1    1    2    0    0  0.20909921671E-01  0.63514740916E-02 -0.82077896568E-02  0.23343818421E-01  0.00000000000E+00 0.  1.
     999901    1    3    3    0    0 -0.64506757646E-01 -0.27610939143E-01 -0.11152982702E+00  0.88981031015E+00  0.88000000000E+00 0. -1.
        -11    1    4    4    0    0  0.16013106507E-01  0.53047047684E-02  0.20537620180E-01  0.26582220305E-01  0.51100000000E-03 0.  1.
         11    1    4    4    0    0  0.27583729467E-01  0.15954760283E-01  0.99199996499E-01  0.10419365112E+00  0.51100000000E-03 0. -1.
</event>
<event>
 8    1  0.1166736E+005  0.1043930E+01  0.7957747E-01            NaN
         13   -1    0    0    0    0  0.00000000000E+00  0.00000000000E+00  0.74505805969E-08  0.10566000000E+00  0.10566000000E+00 0.  1.
     999900   -1    0    0    0    0 -0.00000000000E+00 -0.00000000000E+00 -0.74505805969E-08  0.93827000000E+00  0.93827000000E+00 0.  1.
     999902    2    1    2    0    0 -0.24630651504E-01 -0.12135172180E-01  0.11402663693E-01  0.10141986674E+01  0.10137627853E+01 0.  0.
     999903    2    3    3    0    0  0.32499629482E-01 -0.37294383867E-01  0.11394692229E+00  0.12604767806E+00  0.21378004138E-01 0.  0.
         14    1    1    2    0    0  0.24630651504E-01  0.12135172180E-01 -0.11402663693E-01  0.29731332574E-01  0.00000000000E+00 0.  1.
     999901    1    3    3    0    0 -0.57130280986E-01  0.25159211687E-01 -0.10254425860E+00  0.88815098936E+00  0.88000000000E+00 0.  1.
        -11    1    4    4    0    0 -0.11362253081E-02  0.54335972335E-03  0.13443788758E-01  0.13512321225E-01  0.51100000000E-03 0.  1.
         11    1    4    4    0    0  0.33635854790E-01 -0.37837743591E-01  0.10050313353E+00  0.11253535684E+00  0.51100000000E-03 0. -1.
</event>
<event>
 7    1  0.1166736E+005  0.1043930E+01  0.7957747E-01            NaN
         13   -1    0    0    0    0  0.00000000000E+00  0.00000000000E+00  0.74505805969E-08  0.10566000000E+00  0.10566000000E+00 0. -1.
     999900   -1    0    0    0    0 -0.00000000000E+00 -0.00000000000E+00 -0.74505805969E-08  0.93827000000E+00  0.93827000000E+00 0. -1.
     999903    2    1    2    0    0 -0.23754979426E-01  0.41908193019E-01  0.10464165936E+00  0.11694570499E+00  0.20145107381E-01 0.  0.
         14    1    1    2    0    0  0.22889936110E-01  0.29108832764E-01 -0.13567220155E-01  0.39437834407E-01  0.00000000000E+00 0.  1.
     999901    1    1    2    0    0  0.86504331573E-03 -0.71017025783E-01 -0.91074439210E-01  0.88754646060E+00  0.88000000000E+00 0. -1.
        -11    1    3    3    0    0 -0.23945135761E-01  0.39631566142E-01  0.81905415366E-01  0.94089259476E-01  0.51100000000E-03 0. -1.
         11    1    3    3    0    0  0.19015633495E-03  0.22766268770E-02  0.22736243999E-01  0.22856445514E-01  0.51100000000E-03 0.  1.
</event>
<event>
 8    1  0.1166736E+005  0.1043930E+01  0.7957747E-01            NaN
         13   -1    0    0    0    0  0.00000000000E+00  0.00000000000E+00  0.74505805969E-08  0.10566000000E+00  0.10566000000E+00 0.  1.
     999900   -1    0    0    0    0 -0.00000000000E+00 -0.00000000000E+00 -0.74505805969E-08  0.93827000000E+00  0.93827000000E+00 0.  1.
     999902    2    1    2    0    0  0.15189454888E-01  0.12419470324E-01 -0.16485189875E-01  0.10183033680E+01  0.10179808569E+01 0.  0.
     999903    2    3    3    0    0 -0.80589182035E-01 -0.77961407140E-01 -0.57674449944E-01  0.12755154765E+00  0.19247282048E-01 0.  0.
         14    1    1    2    0    0 -0.15189454888E-01 -0.12419470324E-01  0.16485189875E-01  0.25626632009E-01  0.00000000000E+00 0.  1.
     999901    1    3    3    0    0  0.95778636924E-01  0.90380877464E-01  0.41189260069E-01  0.89075182034E+00  0.88000000000E+00 0. -1.
        -11    1    4    4    0    0 -0.27111171834E-01 -0.27032443120E-01 -0.97399489981E-02  0.39508180757E-01  0.51100000000E-03 0.  1.
         11    1    4    4    0    0 -0.53478010201E-01 -0.50928964020E-01 -0.47934500946E-01  0.88043366889E-01  0.51100000000E-03 0. -1.
</event>
<event>
 8    1  0.1166736E+005  0.1043930E+01  0.7957747E-01            NaN
         13   -1    0    0    0    0  0.00000000000E+00  0.00000000000E+00  0.74505805969E-08  0.10566000000E+00  0.10566000000E+00 0.  1.
     999900   -1    0    0    0    0 -0.00000000000E+00 -0.00000000000E+00 -0.74505805969E-08  0.93827000000E+00  0.93827000000E+00 0. -1.
     999902    2    1    2    0    0  0.10941014033E-01 -0.28579027787E-02 -0.21923245847E-01  0.10192621646E+01  0.10189636196E+01 0.  0.
     999903    2    3    3    0    0  0.61388533658E-01 -0.11117412027E+00  0.19900076433E-01  0.13020280463E+00  0.20700729648E-01 0.  0.
         14    1    1    2    0    0 -0.10941014033E-01  0.28579027787E-02  0.21923245847E-01  0.24667835431E-01  0.00000000000E+00 0.  1.
     999901    1    3    3    0    0 -0.50447519625E-01  0.10831621750E+00 -0.41823322281E-01  0.88905935994E+00  0.88000000000E+00 0. -1.
        -11    1    4    4    0    0  0.25737740560E-01 -0.64076665008E-01  0.47380705226E-02  0.69216766184E-01  0.51100000000E-03 0. -1.
         11    1    4    4    0    0  0.35650793098E-01 -0.47097455266E-01  0.15162005911E-01  0.60986038446E-01  0.51100000000E-03 0.  1.
</event>
<event>
 8    1  0.1166736E+005  0.1043930E+01  0.7957747E-01            NaN
         13   -1    0    0    0    0  0.00000000000E+00  0.00000000000E+00  0.74505805969E-08  0.10566000000E+00  0.10566000000E+00 0.  1.
     999900   -1    0    0    0    0 -0.00000000000E+00 -0.00000000000E+00 -0.74505805969E-08  0.93827000000E+00  0.93827000000E+00 0. -1.
     999902    2    1    2    0    0 -0.86233234300E-02 -0.12000061483E-01 -0.18499342356E-01  0.10202532424E+01  0.10199784752E+01 0.  0.
     999903    2    3    3    0    0 -0.73251935153E-01 -0.10484174009E+00 -0.30444940529E-01  0.13293191839E+00  0.19656145474E-01 0.  0.
         14    1    1    2    0    0  0.86233234300E-02  0.12000061483E-01  0.18499342356E-01  0.23676757595E-01  0.00000000000E+00 0.  1.
     999901    1    3    3    0    0  0.64628611723E-01  0.92841678602E-01  0.11945598173E-01  0.88732132402E+00  0.88000000000E+00 0.  1.
        -11    1    4    4    0    0 -0.34051257198E-01 -0.63500339172E-01 -0.21970196591E-01  0.75330816077E-01  0.51100000000E-03 0. -1.
         11    1    4    4    0    0 -0.39200677955E-01 -0.41341400914E-01 -0.84747439387E-02  0.57601102312E-01  0.51100000000E-03 0.  1.
</event>
<event>
 8    1  0.1166736E+005  0.1043930E+01  0.7957747E-01            NaN
         13   -1    0    0    0    0  0.00000000000E+00  0.00000000000E+00  0.74505805969E-08  0.10566000000E+00  0.10566000000E+00 0. -1.
     999900   -1    0    0    0    0 -0.00000000000E+00 -0.00000000000E+00 -0.74505805969E-08  0.93827000000E+00  0.93827000000E+00 0. -1.
     999902    2    1    2    0    0  0.23760736616E-01 -0.21973660364E-02  0.19464831468E-03  0.10200670809E+01  0.10197879243E+01 0.  0.
     999903    2    3    3    0    0 -0.11881596611E+00 -0.32770139692E-01 -0.27940381087E-01  0.12762414681E+00  0.17780385165E-01 0.  0.
         14    1    1    2    0    0 -0.23760736616E-01  0.21973660364E-02 -0.19464831468E-03  0.23862919142E-01  0.00000000000E+00 0. -1.
     999901    1    3    3    0    0  0.14257670272E+00  0.30572773656E-01  0.28135029402E-01  0.89244293405E+00  0.88000000000E+00 0.  1.
        -11    1    4    4    0    0 -0.76521655358E-02 -0.24359354708E-02 -0.66617886222E-02  0.10446528976E-01  0.51100000000E-03 0.  1.
         11    1    4    4    0    0 -0.11116380057E+00 -0.30334204221E-01 -0.21278592465E-01  0.11717761784E+00  0.51100000000E-03 0. -1.
</event>
<event>
 8    1  0.1166736E+005  0.1043930E+01  0.7957747E-01            NaN
         13   -1    0    0    0    0  0.00000000000E+00  0.00000000000E+00  0.74505805969E-08  0.10566000000E+00  0.10566000000E+00 0. -1.
     999900   -1    0    0    0    0 -0.00000000000E+00 -0.00000000000E+00 -0.74505805969E-08  0.93827000000E+00  0.93827000000E+00 0.  1.
     999902    2    1    2    0    0 -0.44278537527E-02  0.12535155063E-01  0.20003091979E-01  0.10199120965E+01  0.10196292585E+01 0.  0.
     999903    2    3    3    0    0  0.57643018121E-01  0.11028492800E+00 -0.34392815016E-01  0.13066144230E+00  0.20101340657E-01 0.  0.
         14    1    1    2    0    0  0.44278537527E-02 -0.12535155063E-01 -0.20003091979E-01  0.24017903532E-01  0.00000000000E+00 0.  1.
     999901    1    3    3    0    0 -0.62070871874E-01 -0.97749772938E-01  0.54395906996E-01  0.88925065417E+00  0.88000000000E+00 0.  1.
        -11    1    4    4    0    0  0.25949640821E-01  0.66111864965E-01 -0.26077777477E-01  0.75660254739E-01  0.51100000000E-03 0.  1.
         11    1    4    4    0    0  0.31693377300E-01  0.44173063036E-01 -0.83150375392E-02  0.55001187560E-01  0.51100000000E-03 0. -1.
</event>
<event>
 8    1  0.1166736E+005  0.1043930E+01  0.7957747E-01            NaN
         13   -1    0    0    0    0  0.00000000000E+00  0.00000000000E+00  0.74505805969E-08  0.10566000000E+00  0.10566000000E+00 0.  1.
     999900   -1    0    0    0    0 -0.00000000000E+00 -0.00000000000E+00 -0.74505805969E-08  0.93827000000E+00  0.93827000000E+00 0. -1.
     999902    2    1    2    0    0 -0.22181745265E-01  0.41864439693E-02 -0.89140400181E-02  0.10196603431E+01  0.10193714726E+01 0.  0.
     999903    2    3    3    0    0  0.73175486930E-01  0.58114543339E-01 -0.87376055798E-01  0.12940334114E+00  0.19460152542E-01 0.  0.
         14    1    1    2    0    0  0.22181745265E-01 -0.41864439693E-02  0.89140400181E-02  0.24269656890E-01  0.00000000000E+00 0. -1.
     999901    1    3    3    0    0 -0.95357232195E-01 -0.53928099370E-01  0.78462015780E-01  0.89025700197E+00  0.88000000000E+00 0.  1.
        -11    1    4    4    0    0  0.22796206182E-01  0.96308507237E-02 -0.15928938932E-01  0.29434886079E-01  0.51100000000E-03 0.  1.
         11    1    4    4    0    0  0.50379280748E-01  0.48483692615E-01 -0.71447116866E-01  0.99968455063E-01  0.51100000000E-03 0. -1.
</event>
<event>
 8    1  0.1166736E+005  0.1043930E+01  0.7957747E-01            NaN
         13   -1    0    0    0    0  0.00000000000E+00  0.00000000000E+00  0.74505805969E-08  0.10566000000E+00  0.10566000000E+00 0.  1.
     999900   -1    0    0    0    0 -0.00000000000E+00 -0.00000000000E+00 -0.74505805969E-08  0.93827000000E+00  0.93827000000E+00 0.  1.
     999902    2    1    2    0    0  0.23200941964E-01  0.10795201201E-02  0.35426102268E-02  0.10204353377E+01  0.10201648294E+01 0.  0.
     999903    2    3    3    0    0  0.72913433678E-01 -0.73506645503E-01 -0.79447351780E-01  0.13199751668E+00  0.19795629852E-01 0.  0.
         14    1    1    2    0    0 -0.23200941964E-01 -0.10795201201E-02 -0.35426102268E-02  0.23494662350E-01  0.00000000000E+00 0. -1.
     999901    1    3    3    0    0 -0.49712491714E-01  0.74586165623E-01  0.82989962007E-01  0.88843782097E+00  0.88000000000E+00 0. -1.
        -11    1    4    4    0    0  0.71024199716E-01 -0.63914585833E-01 -0.73432317488E-01  0.12050758316E+00  0.51100000000E-03 0. -1.
         11    1    4    4    0    0  0.18892339622E-02 -0.95920596704E-02 -0.60150342919E-02  0.11489933517E-01  0.51100000000E-03 0.  1.
</event>
<event>
 8    1  0.1166736E+005  0.1043930E+01  0.7957747E-01            NaN
         13   -1    0    0    0    0  0.00000000000E+00  0.00000000000E+00  0.74505805969E-08  0.10566000000E+00  0.10566000000E+00 0.  1.
     999900   -1    0    0    0    0 -0.00000000000E+00 -0.00000000000E+00 -0.74505805969E-08  0.93827000000E+00  0.93827000000E+00 0. -1.
     999902    2    1    2    0    0 -0.69257224218E-02  0.18897544730E-01  0.12851640531E-01  0.10200501446E+01  0.10197705870E+01 0.  0.
     999903    2    3    3    0    0  0.33660631448E-01 -0.12078050318E+00 -0.13880880299E-01  0.12770949396E+00  0.19901456016E-01 0.  0.
         14    1    1    2    0    0  0.69257224218E-02 -0.18897544730E-01 -0.12851640531E-01  0.23879855364E-01  0.00000000000E+00 0. -1.
     999901    1    3    3    0    0 -0.40586353870E-01  0.13967804791E+00  0.26732520830E-01  0.89234065068E+00  0.88000000000E+00 0.  1.
        -11    1    4    4    0    0  0.22492125214E-01 -0.44909103610E-01 -0.69149191298E-02  0.50703062149E-01  0.51100000000E-03 0. -1.
         11    1    4    4    0    0  0.11168506234E-01 -0.75871399565E-01 -0.69659611688E-02  0.77006431806E-01  0.51100000000E-03 0.  1.
</event>
<event>
 8    1  0.1166736E+005  0.1043930E+01  0.7957747E-01            NaN
         13   -1    0    0    0    0  0.00000000000E+00  0.00000000000E+00  0.74505805969E-08  0.10566000000E+00  0.10566000000E+00 0.  1.
     999900   -1    0    0    0    0 -0.00000000000E+00 -0.00000000000E+00 -0.74505805969E-08  0.93827000000E+00  0.93827000000E+00 0. -1.
     999902    2    1    2    0    0 -0.23521942956E-01 -0.10205172449E-02  0.19191198442E-02  0.10203078435E+01  0.10200343569E+01 0.  0.
     999903    2    3    3    0    0 -0.37644970784E-01  0.74388763121E-01 -0.99313104971E-01  0.13118806372E+00  0.19909378209E-01 0.  0.
         14    1    1    2    0    0  0.23521942956E-01  0.10205172449E-02 -0.19191198442E-02  0.23622156482E-01  0.00000000000E+00 0. -1.
     999901    1    3    3    0    0  0.14123027829E-01 -0.75409280366E-01  0.10123222482E+00  0.88911977979E+00  0.88000000000E+00 0.  1.
        -11    1    4    4    0    0  0.19644718371E-02  0.16138141438E-02 -0.51115230284E-02  0.57316955920E-02  0.51100000000E-03 0. -1.
         11    1    4    4    0    0 -0.39609442621E-01  0.72774948977E-01 -0.94201581943E-01  0.12545636813E+00  0.51100000000E-03 0.  1.
</event>
<event>
 8    1  0.1166736E+005  0.1043930E+01  0.7957747E-01            NaN
         13   -1    0    0    0    0  0.00000000000E+00  0.00000000000E+00  0.74505805969E-08  0.10566000000E+00  0.10566000000E+00 0. -1.
     999900   -1    0    0    0    0 -0.00000000000E+00 -0.00000000000E+00 -0.74505805969E-08  0.93827000000E+00  0.93827000000E+00 0.  1.
     999902    2    1    2    0    0  0.20219853748E-01  0.79336625894E-02 -0.10380342696E-01  0.10198564252E+01  0.10195722589E+01 0.  0.
     999903    2    3    3    0    0 -0.59110992896E-01  0.45477650285E-01  0.10251014785E+00  0.12831439196E+00  0.19847584596E-01 0.  0.
         14    1    1    2    0    0 -0.20219853748E-01 -0.79336625894E-02  0.10380342696E-01  0.24073574769E-01  0.00000000000E+00 0. -1.
     999901    1    3    3    0    0  0.79330846644E-01 -0.37543987695E-01 -0.11289049055E+00  0.89154203328E+00  0.88000000000E+00 0.  1.
        -11    1    4    4    0    0  0.10187423938E-02  0.39017176472E-02  0.50334646405E-02  0.64697854640E-02  0.51100000000E-03 0.  1.
         11    1    4    4    0    0 -0.60129735290E-01  0.41575932638E-01  0.97476683208E-01  0.12184460649E+00  0.51100000000E-03 0. -1.
</event>
<event>
 8    1  0.1166736E+005  0.1043930E+01  0.7957747E-01            NaN
         13   -1    0    0    0    0  0.00000000000E+00  0.00000000000E+00  0.74505805969E-08  0.10566000000E+00  0.10566000000E+00 0. -1.
     999900   -1    0    0    0    0 -0.00000000000E+00 -0.00000000000E+00 -0.74505805969E-08  0.93827000000E+00  0.93827000000E+00 0.  1.
     999902    2    1    2    0    0  0.16828725998E-01 -0.46515054770E-02 -0.15548166107E-01  0.10205507786E+01  0.10202829528E+01 0.  0.
     999903    2    3    3    0    0  0.10100806851E-01  0.14789273755E-01 -0.13010921724E+00  0.13288674128E+00  0.20241755813E-01 0.  0.
         14    1    1    2    0    0 -0.16828725998E-01  0.46515054770E-02  0.15548166107E-01  0.23379221357E-01  0.00000000000E+00 0. -1.
     999901    1    3    3    0    0  0.67279191476E-02 -0.19440779232E-01  0.11456105114E+00  0.88766403736E+00  0.88000000000E+00 0. -1.
        -11    1    4    4    0    0  0.10808003531E-01  0.88252514209E-02 -0.12192807499E+00  0.12272495506E+00  0.51100000000E-03 0. -1.
         11    1    4    4    0    0 -0.70719668041E-03  0.59640223340E-02 -0.81811422564E-02  0.10161786219E-01  0.51100000000E-03 0.  1.
</event>
<event>
 8    1  0.1166736E+005  0.1043930E+01  0.7957747E-01            NaN
         13   -1    0    0    0    0  0.00000000000E+00  0.00000000000E+00  0.74505805969E-08  0.10566000000E+00  0.10566000000E+00 0. -1.
     999900   -1    0    0    0    0 -0.00000000000E+00 -0.00000000000E+00 -0.74505805969E-08  0.93827000000E+00  0.93827000000E+00 0. -1.
     999902    2    1    2    0    0 -0.22404285211E-02 -0.80559960429E-02 -0.22469487336E-01  0.10199550870E+01  0.10196732727E+01 0.  0.
     999903    2    3    3    0    0  0.19746403150E-01  0.77698838573E-01  0.97134733919E-01  0.12746280010E+00  0.19610683923E-01 0.  0.
         14    1    1    2    0    0  0.22404285211E-02  0.80559960429E-02  0.22469487336E-01  0.23974913000E-01  0.00000000000E+00 0. -1.
     999901    1    3    3    0    0 -0.21986831671E-01 -0.85754834616E-01 -0.11960422126E+00  0.89249228690E+00  0.88000000000E+00 0. -1.
        -11    1    4    4    0    0  0.21784948193E-01  0.61591459823E-01  0.69344653361E-01  0.95273469349E-01  0.51100000000E-03 0. -1.
         11    1    4    4    0    0 -0.20385450435E-02  0.16107378750E-01  0.27790080558E-01  0.32189330755E-01  0.51100000000E-03 0.  1.
</event>
<event>
 8    1  0.1166736E+005  0.1043930E+01  0.7957747E-01            NaN
         13   -1    0    0    0    0  0.00000000000E+00  0.00000000000E+00  0.74505805969E-08  0.10566000000E+00  0.10566000000E+00 0. -1.
     999900   -1    0    0    0    0 -0.00000000000E+00 -0.00000000000E+00 -0.74505805969E-08  0.93827000000E+00  0.93827000000E+00 0.  1.
     999902    2    1    2    0    0  0.21691655190E-01  0.12176367604E-02  0.11079186280E-01  0.10195423205E+01  0.10192505994E+01 0.  0.
     999903    2    3    3    0    0 -0.31937147844E-01  0.10283247316E+00 -0.67705130949E-01  0.12858295432E+00  0.18843896550E-01 0.  0.
         14    1    1    2    0    0 -0.21691655190E-01 -0.12176367604E-02 -0.11079186280E-01  0.24387679529E-01  0.00000000000E+00 0.  1.
     999901    1    3    3    0    0  0.53628803035E-01 -0.10161483640E+00  0.78784317229E-01  0.89095936615E+00  0.88000000000E+00 0. -1.
        -11    1    4    4    0    0 -0.24558356545E-01  0.65540010911E-01 -0.53101603872E-01  0.87855832824E-01  0.51100000000E-03 0. -1.
         11    1    4    4    0    0 -0.73787912990E-02  0.37292462245E-01 -0.14603527077E-01  0.40727121497E-01  0.51100000000E-03 0.  1.
</event>
<event>
 8    1  0.1166736E+005  0.1043930E+01  0.7957747E-01            NaN
         13   -1    0    0    0    0  0.00000000000E+00  0.00000000000E+00  0.74505805969E-08  0.10566000000E+00  0.10566000000E+00 0.  1.
     999900   -1    0    0    0    0 -0.00000000000E+00 -0.00000000000E+00 -0.74505805969E-08  0.93827000000E+00  0.93827000000E+00 0.  1.
     999902    2    1    2    0    0 -0.12859236164E-01 -0.19551664439E-01  0.21397552932E-01  0.10122206511E+01  0.10117238574E+01 0.  0.
     999903    2    3    3    0    0  0.86070109170E-02 -0.98657714064E-01 -0.71368052921E-01  0.12355647127E+00  0.19114848545E-01 0.  0.
         14    1    1    2    0    0  0.12859236164E-01  0.19551664439E-01 -0.21397552932E-01  0.31709348913E-01  0.00000000000E+00 0. -1.
     999901    1    3    3    0    0 -0.21466247081E-01  0.79106049626E-01  0.92765605853E-01  0.88866417981E+00  0.88000000000E+00 0. -1.
        -11    1    4    4    0    0 -0.18520566196E-02 -0.97343847841E-02 -0.14205566667E-01  0.17327654376E-01  0.51100000000E-03 0. -1.
         11    1    4    4    0    0  0.10459067537E-01 -0.88923329280E-01 -0.57162486254E-01  0.10622881690E+00  0.51100000000E-03 0.  1.
</event>
<event>
 8    1  0.1266134E+005  0.1043930E+01  0.7957747E-01            NaN
         13   -1    0    0    0    0  0.00000000000E+00  0.00000000000E+00  0.74505805969E-08  0.10566000000E+00  0.10566000000E+00 0. -1.
     999900   -1    0    0    0    0 -0.00000000000E+00 -0.00000000000E+00 -0.74505805969E-08  0.93827000000E+00  0.93827000000E+00 0. -1.
     999902    2    1    2    0    0  0.19532384990E-01 -0.98932344152E-02 -0.93275401069E-02  0.10201309842E+01  0.10198533383E+01 0.  0.
     999903    2    3    3    0    0  0.16372587462E-01  0.69608064714E-02 -0.12912445613E+00  0.13184874067E+00  0.19860785440E-01 0.  0.
         14    1    1    2    0    0 -0.19532384990E-01  0.98932344152E-02  0.93275401069E-02  0.23799015842E-01  0.00000000000E+00 0. -1.
     999901    1    3    3    0    0  0.31597975281E-02 -0.16854040887E-01  0.11979691602E+00  0.88828224349E+00  0.88000000000E+00 0.  1.
        -11    1    4    4    0    0 -0.18630940040E-02  0.40373896034E-02 -0.63942178806E-01  0.64098634818E-01  0.51100000000E-03 0.  1.
         11    1    4    4    0    0  0.18235681466E-01  0.29234168681E-02 -0.65182277321E-01  0.67750105848E-01  0.51100000000E-03 0. -1.
</event>
<event>
 8    1  0.1166736E+005  0.1043930E+01  0.7957747E-01            NaN
         13   -1    0    0    0    0  0.00000000000E+00  0.00000000000E+00  0.74505805969E-08  0.10566000000E+00  0.10566000000E+00 0.  1.
     999900   -1    0    0    0    0 -0.00000000000E+00 -0.00000000000E+00 -0.74505805969E-08  0.93827000000E+00  0.93827000000E+00 0.  1.
     999902    2    1    2    0    0  0.15873910996E-03 -0.81815824669E-02 -0.22322795362E-01  0.10201545782E+01  0.10198774891E+01 0.  0.
     999903    2    3    3    0    0 -0.85926777232E-01  0.19904648105E-01 -0.96591658082E-01  0.13239593055E+00  0.20472614750E-01 0.  0.
         14    1    1    2    0    0 -0.15873910996E-03  0.81815824669E-02  0.22322795362E-01  0.23775421816E-01  0.00000000000E+00 0.  1.
     999901    1    3    3    0    0  0.86085516342E-01 -0.28086230572E-01  0.74268862720E-01  0.88775864763E+00  0.88000000000E+00 0. -1.
        -11    1    4    4    0    0 -0.14454451116E-01  0.77471614083E-02 -0.90773169672E-02  0.18751225860E-01  0.51100000000E-03 0. -1.
         11    1    4    4    0    0 -0.71472326116E-01  0.12157486697E-01 -0.87514341114E-01  0.11364470469E+00  0.51100000000E-03 0.  1.
</event>
<event>
 8    1  0.1166736E+005  0.1043930E+01  0.7957747E-01            NaN
         13   -1    0    0    0    0  0.00000000000E+00  0.00000000000E+00  0.74505805969E-08  0.10566000000E+00  0.10566000000E+00 0.  1.
     999900   -1    0    0    0    0 -0.00000000000E+00 -0.00000000000E+00 -0.74505805969E-08  0.93827000000E+00  0.93827000000E+00 0.  1.
     999902    2    1    2    0    0 -0.20424182954E-01  0.12350763606E-01 -0.15715635401E-02  0.10200101667E+01  0.10197296612E+01 0.  0.
     999903    2    3    3    0    0  0.29697165250E-01 -0.11348739229E-03  0.12447809810E+00  0.12952938408E+00  0.20028228351E-01 0.  0.
         14    1    1    2    0    0  0.20424182954E-01 -0.12350763606E-01  0.15715635401E-02  0.23919833255E-01  0.00000000000E+00 0. -1.
     999901    1    3    3    0    0 -0.50121348204E-01  0.12464250998E-01 -0.12604966164E+00  0.89048078267E+00  0.88000000000E+00 0.  1.
        -11    1    4    4    0    0  0.13191247387E-01 -0.92961059494E-02  0.70958781710E-01  0.72772497663E-01  0.51100000000E-03 0.  1.
         11    1    4    4    0    0  0.16505917863E-01  0.91826185571E-02  0.53519316387E-01  0.56756886416E-01  0.51100000000E-03 0. -1.
</event>
<event>
 8    1  0.1166736E+005  0.1043930E+01  0.7957747E-01            NaN
         13   -1    0    0    0    0  0.00000000000E+00  0.00000000000E+00  0.74505805969E-08  0.10566000000E+00  0.10566000000E+00 0. -1.
     999900   -1    0    0    0    0 -0.00000000000E+00 -0.00000000000E+00 -0.74505805969E-08  0.93827000000E+00  0.93827000000E+00 0. -1.
     999902    2    1    2    0    0  0.10426110749E-01 -0.13822193832E-01  0.16186117346E-01  0.10202287928E+01  0.10199534511E+01 0.  0.
     999903    2    3    3    0    0 -0.73304871644E-01 -0.10092943521E+00  0.37331176668E-01  0.13172124504E+00  0.19912672929E-01 0.  0.
         14    1    1    2    0    0 -0.10426110749E-01  0.13822193832E-01 -0.16186117346E-01  0.23701207193E-01  0.00000000000E+00 0.  1.
     999901    1    3    3    0    0  0.83730982392E-01  0.87107241382E-01 -0.21145059322E-01  0.88850754777E+00  0.88000000000E+00 0. -1.
        -11    1    4    4    0    0 -0.32238864338E-01 -0.38207045147E-01  0.55841973343E-02  0.50304741859E-01  0.51100000000E-03 0.  1.
         11    1    4    4    0    0 -0.41066007306E-01 -0.62722390066E-01  0.31746979333E-01  0.81416503176E-01  0.51100000000E-03 0. -1.
</event>
<event>
 8    1  0.1166736E+005  0.1043930E+01  0.7957747E-01            NaN
         13   -1    0    0    0    0  0.00000000000E+00  0.00000000000E+00  0.74505805969E-08  0.10566000000E+00  0.10566000000E+00 0.  1.
     999900   -1    0    0    0    0 -0.00000000000E+00 -0.00000000000E+00 -0.74505805969E-08  0.93827000000E+00  0.93827000000E+00 0. -1.
     999902    2    1    2    0    0 -0.74545158321E-02  0.50556475393E-02  0.21070110359E-01  0.10210153992E+01  0.10207582312E+01 0.  0.
     999903    2    3    3    0    0 -0.54464860853E-01  0.11383205119E+00  0.36801188075E-01  0.13293333920E+00  0.19818886967E-01 0.  0.
         14    1    1    2    0    0  0.74545158321E-02 -0.50556475393E-02 -0.21070110359E-01  0.22914600780E-01  0.00000000000E+00 0. -1.
     999901    1    3    3    0    0  0.47010345021E-01 -0.10877640365E+00 -0.15731077716E-01  0.88808206002E+00  0.88000000000E+00 0.  1.
        -11    1    4    4    0    0 -0.38443116434E-01  0.74207722337E-01  0.33575193038E-01  0.90067829796E-01  0.51100000000E-03 0.  1.
         11    1    4    4    0    0 -0.16021744420E-01  0.39624328852E-01  0.32259950368E-02  0.42865509401E-01  0.51100000000E-03 0. -1.
</event>
<event>
 8    1  0.1166736E+005  0.1043930E+01  0.7957747E-01            NaN
         13   -1    0    0    0    0  0.00000000000E+00  0.00000000000E+00  0.74505805969E-08  0.10566000000E+00  0.10566000000E+00 0. -1.
     999900   -1    0    0    0    0 -0.00000000000E+00 -0.00000000000E+00 -0.74505805969E-08  0.93827000000E+00  0.93827000000E+00 0. -1.
     999902    2    1    2    0    0 -0.15561780025E-01  0.10018405653E-01  0.13190863834E-01  0.10212025642E+01  0.10209496270E+01 0.  0.
     999903    2    3    3    0    0 -0.68974228588E-01  0.62921957525E-01 -0.92251776995E-01  0.13172528739E+00  0.11159929671E-01 0.  0.
         14    1    1    2    0    0  0.15561780025E-01 -0.10018405653E-01 -0.13190863834E-01  0.22727435800E-01  0.00000000000E+00 0.  1.
     999901    1    3    3    0    0  0.53412448563E-01 -0.52903551872E-01  0.10544264083E+00  0.88947727681E+00  0.88000000000E+00 0.  1.
        -11    1    4    4    0    0 -0.39729031520E-01  0.43420891913E-01 -0.58962544522E-01  0.83310338960E-01  0.51100000000E-03 0.  1.
         11    1    4    4    0    0 -0.29245197068E-01  0.19501065612E-01 -0.33289232473E-01  0.48414948427E-01  0.51100000000E-03 0. -1.
</event>
<event>
 8    1  0.1166736E+005  0.1043930E+01  0.7957747E-01            NaN
         13   -1    0    0    0    0  0.00000000000E+00  0.00000000000E+00  0.74505805969E-08  0.10566000000E+00  0.10566000000E+00 0. -1.
     999900   -1    0    0    0    0 -0.00000000000E+00 -0.00000000000E+00 -0.74505805969E-08  0.93827000000E+00  0.93827000000E+00 0. -1.
     999902    2    1    2    0    0 -0.30176248828E-02 -0.13993149431E-01  0.18557613314E-01  0.10204928649E+01  0.10202236951E+01 0.  0.
     999903    2    3    3    0    0 -0.19336931086E-02  0.11388536450E+00  0.59876715233E-01  0.13028987824E+00  0.20411171656E-01 0.  0.
         14    1    1    2    0    0  0.30176248828E-02  0.13993149431E-01 -0.18557613314E-01  0.23437135124E-01  0.00000000000E+00 0.  1.
     999901    1    3    3    0    0 -0.10839317742E-02 -0.12787851393E+00 -0.41319101920E-01  0.89020298664E+00  0.88000000000E+00 0. -1.
        -11    1    4    4    0    0 -0.65540845055E-02  0.99737517942E-01  0.57186760754E-01  0.11515691571E+00  0.51100000000E-03 0.  1.
         11    1    4    4    0    0  0.46203913969E-02  0.14147846557E-01  0.26899544793E-02  0.15132962530E-01  0.51100000000E-03 0. -1.
</event>
<event>
 8    1  0.1166736E+005  0.1043930E+01  0.7957747E-01            NaN
         13   -1    0    0    0    0  0.00000000000E+00  0.00000000000E+00  0.74505805969E-08  0.10566000000E+00  0.10566000000E+00 0.  1.
     999900   -1    0    0    0    0 -0.00000000000E+00 -0.00000000000E+00 -0.74505805969E-08  0.93827000000E+00  0.93827000000E+00 0.  1.
     999902    2    1    2    0    0  0.18218031763E-01 -0.12594583572E-01  0.86207313748E-02  0.10201636956E+01  0.10198868214E+01 0.  0.
     999903    2    3    3    0    0 -0.82541064516E-01 -0.55359992571E-01  0.81952437273E-01  0.13035539331E+00  0.19964230029E-01 0.  0.
         14    1    1    2    0    0 -0.18218031763E-01  0.12594583572E-01 -0.86207313748E-02  0.23766304427E-01  0.00000000000E+00 0. -1.
     999901    1    3    3    0    0  0.10075909628E+00  0.42765408999E-01 -0.73331705898E-01  0.88980830227E+00  0.88000000000E+00 0.  1.
        -11    1    4    4    0    0 -0.16170156978E-01 -0.20864711308E-01  0.18144406853E-01  0.32035773374E-01  0.51100000000E-03 0.  1.
         11    1    4    4    0    0 -0.66370907538E-01 -0.34495281263E-01  0.63808030420E-01  0.98319619934E-01  0.51100000000E-03 0. -1.
</event>
<event>
 8    1  0.1166736E+005  0.1043930E+01  0.7957747E-01            NaN
         13   -1    0    0    0    0  0.00000000000E+00  0.00000000000E+00  0.74505805969E-08  0.10566000000E+00  0.10566000000E+00 0. -1.
     999900   -1    0    0    0    0 -0.00000000000E+00 -0.00000000000E+00 -0.74505805969E-08  0.93827000000E+00  0.93827000000E+00 0.  1.
     999902    2    1    2    0    0  0.16095151902E-01 -0.17412252810E-01 -0.25394045373E-02  0.10200827981E+01  0.10198040135E+01 0.  0.
     999903    2    3    3    0    0 -0.69942128831E-01  0.76174893161E-01 -0.73099503108E-01  0.12815247848E+00  0.19621535406E-01 0.  0.
         14    1    1    2    0    0 -0.16095151902E-01  0.17412252810E-01  0.25394045373E-02  0.23847201892E-01  0.00000000000E+00 0.  1.
     999901    1    3    3    0    0  0.86037280732E-01 -0.93587145971E-01  0.70560098571E-01  0.89193031963E+00  0.88000000000E+00 0. -1.
        -11    1    4    4    0    0 -0.44639113209E-01  0.60639231005E-01 -0.56429555235E-01  0.94097410114E-01  0.51100000000E-03 0. -1.
         11    1    4    4    0    0 -0.25303015622E-01  0.15535662156E-01 -0.16669947873E-01  0.34055068364E-01  0.51100000000E-03 0.  1.
</event>
<event>
 8    1  0.1166736E+005  0.1043930E+01  0.7957747E-01            NaN
         13   -1    0    0    0    0  0.00000000000E+00  0.00000000000E+00  0.74505805969E-08  0.10566000000E+00  0.10566000000E+00 0.  1.
     999900   -1    0    0    0    0 -0.00000000000E+00 -0.00000000000E+00 -0.74505805969E-08  0.93827000000E+00  0.93827000000E+00 0. -1.
     999902    2    1    2    0    0 -0.22267943207E-01 -0.87751357824E-02  0.36350048275E-02  0.10197209611E+01  0.10194335491E+01 0.  0.
     999903    2    3    3    0    0  0.64735932009E-01  0.81405333753E-02 -0.10865313081E+00  0.12816925788E+00  0.19100959541E-01 0.  0.
         14    1    1    2    0    0  0.22267943207E-01  0.87751357824E-02 -0.36350048275E-02  0.24209038865E-01  0.00000000000E+00 0. -1.
     999901    1    3    3    0    0 -0.87003875216E-01 -0.16915669158E-01  0.11228813564E+00  0.89155170325E+00  0.88000000000E+00 0.  1.
        -11    1    4    4    0    0  0.40631134881E-01  0.13694651468E-01 -0.75113723819E-01  0.86491417074E-01  0.51100000000E-03 0. -1.
         11    1    4    4    0    0  0.24104797128E-01 -0.55541180930E-02 -0.33539406990E-01  0.41677840810E-01  0.51100000000E-03 0.  1.
</event>
<event>
 8    1  0.1166736E+005  0.1043930E+01  0.7957747E-01            NaN
         13   -1    0    0    0    0  0.00000000000E+00  0.00000000000E+00  0.74505805969E-08  0.10566000000E+00  0.10566000000E+00 0.  1.
     999900   -1    0    0    0    0 -0.00000000000E+00 -0.00000000000E+00 -0.74505805969E-08  0.93827000000E+00  0.93827000000E+00 0. -1.
     999902    2    1    2    0    0 -0.21086566343E-01  0.75722837430E-02 -0.11387030298E-01  0.10187974072E+01  0.10184873636E+01 0.  0.
     999903    2    3    3    0    0  0.32293166241E-02  0.78439652053E-01 -0.10278185739E+00  0.13089737879E+00  0.20169433927E-01 0.  0.
         14    1    1    2    0    0  0.21086566343E-01 -0.75722837430E-02  0.11387030298E-01  0.25132592787E-01  0.00000000000E+00 0.  1.
     999901    1    3    3    0    0 -0.24315882967E-01 -0.70867368310E-01  0.91394827093E-01  0.88790002842E+00  0.88000000000E+00 0.  1.
        -11    1    4    4    0    0  0.11517586650E-01  0.35952694190E-01 -0.48844763308E-01  0.61735913741E-01  0.51100000000E-03 0.  1.
         11    1    4    4    0    0 -0.82882700261E-02  0.42486957863E-01 -0.53937094083E-01  0.69161465048E-01  0.51100000000E-03 0. -1.
</event>
<event>
 8    1  0.1166736E+005  0.1043930E+01  0.7957747E-01            NaN
         13   -1    0    0    0    0  0.00000000000E+00  0.00000000000E+00  0.74505805969E-08  0.10566000000E+00  0.10566000000E+00 0.  1.
     999900   -1    0    0    0    0 -0.00000000000E+00 -0.00000000000E+00 -0.74505805969E-08  0.93827000000E+00  0.93827000000E+00 0. -1.
     999902    2    1    2    0    0 -0.21928206322E-01  0.45822283207E-02 -0.91383743065E-02  0.10197359318E+01  0.10194488794E+01 0.  0.
     999903    2    3    3    0    0 -0.13163027775E-01 -0.25330243956E-01  0.12461195260E+00  0.12908407264E+00  0.17879388122E-01 0.  0.
         14    1    1    2    0    0  0.21928206322E-01 -0.45822283207E-02  0.91383743065E-02  0.24194068154E-01  0.00000000000E+00 0.  1.
     999901    1    3    3    0    0 -0.87651785469E-02  0.29912472276E-01 -0.13375032691E+00  0.89065185920E+00  0.88000000000E+00 0. -1.
        -11    1    4    4    0    0 -0.49017616343E-02 -0.12070293151E-01  0.24441882109E-01  0.27701732182E-01  0.51100000000E-03 0.  1.
         11    1    4    4    0    0 -0.82612661411E-02 -0.13259950805E-01  0.10017007049E+00  0.10138234046E+00  0.51100000000E-03 0. -1.
</event>
<event>
 8    1  0.1166736E+005  0.1043930E+01  0.7957747E-01            NaN
         13   -1    0    0    0    0  0.00000000000E+00  0.00000000000E+00  0.74505805969E-08  0.10566000000E+00  0.10566000000E+00 0.  1.
     999900   -1    0    0    0    0 -0.00000000000E+00 -0.00000000000E+00 -0.74505805969E-08  0.93827000000E+00  0.93827000000E+00 0.  1.
     999902    2    1    2    0    0 -0.10728244935E-01 -0.21232690084E-01  0.10980729841E-01  0.10177288780E+01  0.10173915521E+01 0.  0.
     999903    2    3    3    0    0  0.76956963718E-01 -0.99697583265E-01 -0.20695764424E-01  0.12933209974E+00  0.20892462414E-01 0.  0.
         14    1    1    2    0    0  0.10728244935E-01  0.21232690084E-01 -0.10980729841E-01  0.26201122026E-01  0.00000000000E+00 0. -1.
     999901    1    3    3    0    0 -0.87685208653E-01  0.78464893181E-01  0.31676494264E-01  0.88839677823E+00  0.88000000000E+00 0.  1.
        -11    1    4    4    0    0  0.32145457829E-01 -0.25973726138E-01 -0.48689616822E-02  0.41616496938E-01  0.51100000000E-03 0. -1.
         11    1    4    4    0    0  0.44811505889E-01 -0.73723857127E-01 -0.15826802741E-01  0.87715602807E-01  0.51100000000E-03 0.  1.
</event>
<event>
 8    1  0.1166736E+005  0.1043930E+01  0.7957747E-01            NaN
         13   -1    0    0    0    0  0.00000000000E+00  0.00000000000E+00  0.74505805969E-08  0.10566000000E+00  0.10566000000E+00 0. -1.
     999900   -1    0    0    0    0 -0.00000000000E+00 -0.00000000000E+00 -0.74505805969E-08  0.93827000000E+00  0.93827000000E+00 0. -1.
     999902    2    1    2    0    0  0.14173822429E-02  0.26397718468E-01 -0.71041164514E-03  0.10174847131E+01  0.10171409874E+01 0.  0.
     999903    2    3    3    0    0 -0.72036521706E-01 -0.97755314580E-01  0.23893007051E-01  0.12540019929E+00  0.20223061311E-01 0.  0.
         14    1    1    2    0    0 -0.14173822429E-02 -0.26397718468E-01  0.71041164514E-03  0.26445286867E-01  0.00000000000E+00 0. -1.
     999901    1    3    3    0    0  0.73453903949E-01  0.12415303305E+00 -0.24603418696E-01  0.89208451384E+00  0.88000000000E+00 0. -1.
        -11    1    4    4    0    0 -0.23480437387E-01 -0.35811724287E-01 -0.10360149344E-02  0.42838592230E-01  0.51100000000E-03 0.  1.
         11    1    4    4    0    0 -0.48556084319E-01 -0.61943590293E-01  0.24929021986E-01  0.82561607064E-01  0.51100000000E-03 0. -1.
</event>
<event>
 8    1  0.1166736E+005  0.1043930E+01  0.7957747E-01            NaN
         13   -1    0    0    0    0  0.00000000000E+00  0.00000000000E+00  0.74505805969E-08  0.10566000000E+00  0.10566000000E+00 0. -1.
     999900   -1    0    0    0    0 -0.00000000000E+00 -0.00000000000E+00 -0.74505805969E-08  0.93827000000E+00  0.93827000000E+00 0. -1.
     999902    2    1    2    0    0  0.23033908330E-01  0.36312137431E-02  0.26451707539E-02  0.10204620735E+01  0.10201921877E+01 0.  0.
     999903    2    3    3    0    0 -0.80763084849E-01 -0.87834021683E-01 -0.43245905479E-01  0.12847233366E+00  0.19935920764E-01 0.  0.
         14    1    1    2    0    0 -0.23033908330E-01 -0.36312137431E-02 -0.26451707539E-02  0.23467926507E-01  0.00000000000E+00 0.  1.
     999901    1    3    3    0    0  0.10379699318E+00  0.91465235426E-01  0.45891076233E-01  0.89198973983E+00  0.88000000000E+00 0. -1.
        -11    1    4    4    0    0 -0.15982847918E-01 -0.16620636013E-01 -0.17107016371E-01  0.28715990304E-01  0.51100000000E-03 0. -1.
         11    1    4    4    0    0 -0.64780236931E-01 -0.71213385670E-01 -0.26138889108E-01  0.99756343358E-01  0.51100000000E-03 0.  1.
</event>
<event>
 8    1  0.1166736E+005  0.1043930E+01  0.7957747E-01            NaN
         13   -1    0    0    0    0  0.00000000000E+00  0.00000000000E+00  0.74505805969E-08  0.10566000000E+00  0.10566000000E+00 0.  1.
     999900   -1    0    0    0    0 -0.00000000000E+00 -0.00000000000E+00 -0.74505805969E-08  0.93827000000E+00  0.93827000000E+00 0. -1.
     999902    2    1    2    0    0 -0.11744475581E-01  0.18145486089E-01  0.86779780564E-02  0.10206383990E+01  0.10203726000E+01 0.  0.
     999903    2    3    3    0    0 -0.53474748243E-01 -0.76364126904E-01  0.91007911220E-01  0.13077790408E+00  0.11375047794E-01 0.  0.
         14    1    1    2    0    0  0.11744475581E-01 -0.18145486089E-01 -0.86779780564E-02  0.23291600959E-01  0.00000000000E+00 0. -1.
     999901    1    3    3    0    0  0.41730272663E-01  0.94509612994E-01 -0.82329933163E-01  0.88986049497E+00  0.88000000000E+00 0.  1.
        -11    1    4    4    0    0 -0.13559497496E-01 -0.20007642110E-01  0.30814007019E-01  0.39165416693E-01  0.51100000000E-03 0. -1.
         11    1    4    4    0    0 -0.39915250747E-01 -0.56356484794E-01  0.60193904201E-01  0.91612487383E-01  0.51100000000E-03 0.  1.
</event>
<event>
 8    1  0.1166736E+005  0.1043930E+01  0.7957747E-01            NaN
         13   -1    0    0    0    0  0.00000000000E+00  0.00000000000E+00  0.74505805969E-08  0.10566000000E+00  0.10566000000E+00 0. -1.
     999900   -1    0    0    0    0 -0.00000000000E+00 -0.00000000000E+00 -0.74505805969E-08  0.93827000000E+00  0.93827000000E+00 0. -1.
     999902    2    1    2    0    0  0.94063811490E-02  0.73663176881E-02 -0.20372200110E-01  0.10203128626E+01  0.10200394935E+01 0.  0.
     999903    2    3    3    0    0 -0.10836591933E+00 -0.64983111528E-01  0.14629737242E-01  0.12883662045E+00  0.20466272240E-01 0.  0.
         14    1    1    2    0    0 -0.94063811490E-02 -0.73663176881E-02  0.20372200110E-01  0.23617137421E-01  0.00000000000E+00 0. -1.
     999901    1    3    3    0    0  0.11777230048E+00  0.72349429216E-01 -0.35001937352E-01  0.89147624213E+00  0.88000000000E+00 0. -1.
        -11    1    4    4    0    0 -0.55189302468E-01 -0.22282339494E-01  0.25529298402E-02  0.59574661829E-01  0.51100000000E-03 0.  1.
         11    1    4    4    0    0 -0.53176616866E-01 -0.42700772034E-01  0.12076807401E-01  0.69261958618E-01  0.51100000000E-03 0. -1.
</event>
<event>
 8    1  0.1166736E+005  0.1043930E+01  0.7957747E-01            NaN
         13   -1    0    0    0    0  0.00000000000E+00  0.00000000000E+00  0.74505805969E-08  0.10566000000E+00  0.10566000000E+00 0. -1.
     999900   -1    0    0    0    0 -0.00000000000E+00 -0.00000000000E+00 -0.74505805969E-08  0.93827000000E+00  0.93827000000E+00 0.  1.
     999902    2    1    2    0    0  0.80515535100E-02 -0.20020349418E-01 -0.94813775024E-02  0.10203601374E+01  0.10200878744E+01 0.  0.
     999903    2    3    3    0    0  0.88877418041E-01 -0.96808589659E-01 -0.68974263152E-02  0.13332240931E+00  0.21358648462E-01 0.  0.
         14    1    1    2    0    0 -0.80515535100E-02  0.20020349418E-01  0.94813775024E-02  0.23569862624E-01  0.00000000000E+00 0.  1.
     999901    1    3    3    0    0 -0.80825864531E-01  0.76788240240E-01 -0.25839511872E-02  0.88703772807E+00  0.88000000000E+00 0.  1.
        -11    1    4    4    0    0  0.14227830048E-01 -0.26441154297E-01 -0.65351069353E-02  0.30733280529E-01  0.51100000000E-03 0. -1.
         11    1    4    4    0    0  0.74649587993E-01 -0.70367435362E-01 -0.36231937983E-03  0.10258912878E+00  0.51100000000E-03 0.  1.
</event>
<event>
 8    1  0.1166736E+005  0.1043930E+01  0.7957747E-01            NaN
         13   -1    0    0    0    0  0.00000000000E+00  0.00000000000E+00  0.74505805969E-08  0.10566000000E+00  0.10566000000E+00 0.  1.
     999900   -1    0    0    0    0 -0.00000000000E+00 -0.00000000000E+00 -0.74505805969E-08  0.93827000000E+00  0.93827000000E+00 0.  1.
     999902    2    1    2    0    0  0.20160714573E-01  0.10917224145E-01 -0.12004331039E-01  0.10180505843E+01  0.10177215965E+01 0.  0.
     999903    2    3    3    0    0  0.35240094134E-01 -0.55100489012E-02  0.12140425252E+00  0.12771632504E+00  0.17327500633E-01 0.  0.
         14    1    1    2    0    0 -0.20160714573E-01 -0.10917224145E-01  0.12004331039E-01  0.25879415735E-01  0.00000000000E+00 0.  1.
     999901    1    3    3    0    0 -0.15079379561E-01  0.16427273046E-01 -0.13340858356E+00  0.89033425923E+00  0.88000000000E+00 0.  1.
        -11    1    4    4    0    0  0.22823656020E-01  0.47818353555E-02  0.65447333587E-01  0.69479492069E-01  0.51100000000E-03 0. -1.
         11    1    4    4    0    0  0.12416438114E-01 -0.10291884257E-01  0.55956918930E-01  0.58236832968E-01  0.51100000000E-03 0.  1.
</event>
<event>
 8    1  0.1166736E+005  0.1043930E+01  0.7957747E-01            NaN
         13   -1    0    0    0    0  0.00000000000E+00  0.00000000000E+00  0.74505805969E-08  0.10566000000E+00  0.10566000000E+00 0. -1.
     999900   -1    0    0    0    0 -0.00000000000E+00 -0.00000000000E+00 -0.74505805969E-08  0.93827000000E+00  0.93827000000E+00 0.  1.
     999902    2    1    2    0    0 -0.10106529352E-01  0.77184427681E-02  0.19936980573E-01  0.10202826008E+01  0.10200085225E+01 0.  0.
     999903    2    3    3    0    0  0.72486308283E-01  0.12122163053E-01  0.10759613815E+00  0.13206804481E+00  0.21536661513E-01 0.  0.
         14    1    1    2    0    0  0.10106529352E-01 -0.77184427681E-02 -0.19936980573E-01  0.23647399195E-01  0.00000000000E+00 0.  1.
     999901    1    3    3    0    0 -0.82592837636E-01 -0.44037202849E-02 -0.87659157574E-01  0.88821455600E+00  0.88000000000E+00 0.  1.
        -11    1    4    4    0    0  0.54044972477E-01  0.16519433030E-01  0.89527710201E-01  0.10587361679E+00  0.51100000000E-03 0.  1.
         11    1    4    4    0    0  0.18441335806E-01 -0.43972699772E-02  0.18068427946E-01  0.26194428015E-01  0.51100000000E-03 0. -1.
</event>
<event>
 8    1  0.1166736E+005  0.1043930E+01  0.7957747E-01            NaN
         13   -1    0    0    0    0  0.00000000000E+00  0.00000000000E+00  0.74505805969E-08  0.10566000000E+00  0.10566000000E+00 0. -1.
     999900   -1    0    0    0    0 -0.00000000000E+00 -0.00000000000E+00 -0.74505805969E-08  0.93827000000E+00  0.93827000000E+00 0. -1.
     999902    2    1    2    0    0 -0.19089399947E-01 -0.13015507895E-01 -0.17120507954E-02  0.10207623554E+01  0.10204994104E+01 0.  0.
     999903    2    3    3    0    0  0.44406238090E-01  0.85965251635E-01 -0.83220068676E-01  0.12920616329E+00  0.20167159703E-01 0.  0.
         14    1    1    2    0    0  0.19089399947E-01  0.13015507895E-01  0.17120507954E-02  0.23167644551E-01  0.00000000000E+00 0. -1.
     999901    1    3    3    0    0 -0.63495638037E-01 -0.98980759530E-01  0.81508017880E-01  0.89155619216E+00  0.88000000000E+00 0.  1.
        -11    1    4    4    0    0  0.33311383655E-01  0.50025983390E-01 -0.60397490271E-01  0.85207776917E-01  0.51100000000E-03 0.  1.
         11    1    4    4    0    0  0.11094854435E-01  0.35939268245E-01 -0.22822578405E-01  0.43998386368E-01  0.51100000000E-03 0. -1.
</event>
<event>
 8    1  0.1166736E+005  0.1043930E+01  0.7957747E-01            NaN
         13   -1    0    0    0    0  0.00000000000E+00  0.00000000000E+00  0.74505805969E-08  0.10566000000E+00  0.10566000000E+00 0.  1.
     999900   -1    0    0    0    0 -0.00000000000E+00 -0.00000000000E+00 -0.74505805969E-08  0.93827000000E+00  0.93827000000E+00 0.  1.
     999902    2    1    2    0    0 -0.14095339328E-01  0.95260278282E-03 -0.19055094389E-01  0.10202090669E+01  0.10199332614E+01 0.  0.
     999903    2    3    3    0    0 -0.50181337762E-01  0.43253848989E-01  0.10920357325E+00  0.12917490344E+00  0.19278826613E-01 0.  0.
         14    1    1    2    0    0  0.14095339328E-01 -0.95260278282E-03  0.19055094389E-01  0.23720933055E-01  0.00000000000E+00 0. -1.
     999901    1    3    3    0    0  0.36085998434E-01 -0.42301246206E-01 -0.12825866764E+00  0.89103416351E+00  0.88000000000E+00 0.  1.
        -11    1    4    4    0    0 -0.18790117834E-01  0.11229771194E-01  0.52479919919E-01  0.56864570736E-01  0.51100000000E-03 0.  1.
         11    1    4    4    0    0 -0.31391219928E-01  0.32024077795E-01  0.56723653330E-01  0.72310332701E-01  0.51100000000E-03 0. -1.
</event>
<event>
 8    1  0.1166736E+005  0.1043930E+01  0.7957747E-01            NaN
         13   -1    0    0    0    0  0.00000000000E+00  0.00000000000E+00  0.74505805969E-08  0.10566000000E+00  0.10566000000E+00 0. -1.
     999900   -1    0    0    0    0 -0.00000000000E+00 -0.00000000000E+00 -0.74505805969E-08  0.93827000000E+00  0.93827000000E+00 0.  1.
     999902    2    1    2    0    0 -0.21771411031E-01  0.95208574644E-02 -0.32603163168E-02  0.10199451980E+01  0.10196631484E+01 0.  0.
     999903    2    3    3    0    0 -0.79072288769E-01 -0.73993590507E-02  0.10313574985E+00  0.13152536074E+00  0.18835080429E-01 0.  0.
         14    1    1    2    0    0  0.21771411031E-01 -0.95208574644E-02  0.32603163168E-02  0.23984802014E-01  0.00000000000E+00 0.  1.
     999901    1    3    3    0    0  0.57300877738E-01  0.16920216515E-01 -0.10639606617E+00  0.88841983725E+00  0.88000000000E+00 0.  1.
        -11    1    4    4    0    0 -0.24115513133E-01 -0.61548064458E-02  0.20367506000E-01  0.32164204291E-01  0.51100000000E-03 0. -1.
         11    1    4    4    0    0 -0.54956775637E-01 -0.12445526049E-02  0.82768243852E-01  0.99361156449E-01  0.51100000000E-03 0.  1.
</event>
<event>
 8    1  0.1166736E+005  0.1043930E+01  0.7957747E-01            NaN
         13   -1    0    0    0    0  0.00000000000E+00  0.00000000000E+00  0.74505805969E-08  0.10566000000E+00  0.10566000000E+00 0. -1.
     999900   -1    0    0    0    0 -0.00000000000E+00 -0.00000000000E+00 -0.74505805969E-08  0.93827000000E+00  0.93827000000E+00 0. -1.
     999902    2    1    2    0    0  0.11803072488E-01 -0.98217032682E-02  0.18155497405E-01  0.10201518491E+01  0.10198746956E+01 0.  0.
     999903    2    3    3    0    0  0.10209505983E+00 -0.37428751702E-01  0.75518034000E-01  0.13324415788E+00  0.15057206069E-01 0.  0.
         14    1    1    2    0    0 -0.11803072488E-01  0.98217032682E-02 -0.18155497405E-01  0.23778150922E-01  0.00000000000E+00 0.  1.
     999901    1    3    3    0    0 -0.90291987340E-01  0.27607048434E-01 -0.57362536596E-01  0.88690769120E+00  0.88000000000E+00 0. -1.
        -11    1    4    4    0    0  0.39598877598E-01 -0.71072088518E-02  0.25306995892E-01  0.47531975414E-01  0.51100000000E-03 0.  1.
         11    1    4    4    0    0  0.62496182230E-01 -0.30321542850E-01  0.50211038109E-01  0.85712182466E-01  0.51100000000E-03 0. -1.
</event>
<event>
 8    1  0.1166736E+005  0.1043930E+01  0.7957747E-01            NaN
         13   -1    0    0    0    0  0.00000000000E+00  0.00000000000E+00  0.74505805969E-08  0.10566000000E+00  0.10566000000E+00 0.  1.
     999900   -1    0    0    0    0 -0.00000000000E+00 -0.00000000000E+00 -0.74505805969E-08  0.93827000000E+00  0.93827000000E+00 0.  1.
     999902    2    1    2    0    0  0.15607721916E-01  0.18142291647E-01 -0.32252925075E-02  0.10197815789E+01  0.10194956216E+01 0.  0.
     999903    2    3    3    0    0  0.46794549583E-01 -0.96745582846E-01  0.68710525978E-01  0.12885700078E+00  0.18263422440E-01 0.  0.
         14    1    1    2    0    0 -0.15607721916E-01 -0.18142291647E-01  0.32252925075E-02  0.24148421095E-01  0.00000000000E+00 0.  1.
     999901    1    3    3    0    0 -0.31186827667E-01  0.11488787449E+00 -0.71935818485E-01  0.89092457812E+00  0.88000000000E+00 0.  1.
        -11    1    4    4    0    0  0.80947819247E-02 -0.34457623674E-01  0.26732284739E-01  0.44359097061E-01  0.51100000000E-03 0. -1.
         11    1    4    4    0    0  0.38699767658E-01 -0.62287959172E-01  0.41978241239E-01  0.84497903720E-01  0.51100000000E-03 0.  1.
</event>
<event>
 8    1  0.1166736E+005  0.1043930E+01  0.7957747E-01            NaN
         13   -1    0    0    0    0  0.00000000000E+00  0.00000000000E+00  0.74505805969E-08  0.10566000000E+00  0.10566000000E+00 0. -1.
     999900   -1    0    0    0    0 -0.00000000000E+00 -0.00000000000E+00 -0.74505805969E-08  0.93827000000E+00  0.93827000000E+00 0. -1.
     999902    2    1    2    0    0 -0.10542073448E-01 -0.17582228282E-01 -0.12231248764E-01  0.10200579764E+01  0.10197786043E+01 0.  0.
     999903    2    3    3    0    0  0.34324586605E-01 -0.11453879494E+00  0.51043917053E-01  0.13134129512E+00  0.18647829458E-01 0.  0.
         14    1    1    2    0    0  0.10542073448E-01  0.17582228282E-01  0.12231248764E-01  0.23872023589E-01  0.00000000000E+00 0. -1.
     999901    1    3    3    0    0 -0.44866660053E-01  0.96956566655E-01 -0.63275165817E-01  0.88871668129E+00  0.88000000000E+00 0. -1.
        -11    1    4    4    0    0  0.17302543953E-01 -0.67567498389E-01  0.20164587439E-01  0.72605899026E-01  0.51100000000E-03 0. -1.
         11    1    4    4    0    0  0.17022042653E-01 -0.46971296548E-01  0.30879329615E-01  0.58735396090E-01  0.51100000000E-03 0.  1.
</event>
<event>
 8    1  0.1166736E+005  0.1043930E+01  0.7957747E-01            NaN
         13   -1    0    0    0    0  0.00000000000E+00  0.00000000000E+00  0.74505805969E-08  0.10566000000E+00  0.10566000000E+00 0.  1.
     999900   -1    0    0    0    0 -0.00000000000E+00 -0.00000000000E+00 -0.74505805969E-08  0.93827000000E+00  0.93827000000E+00 0. -1.
     999902    2    1    2    0    0 -0.22724283832E-02  0.18838429223E-01 -0.13124490013E-01  0.10208583164E+01  0.10205975698E+01 0.  0.
     999903    2    3    3    0    0 -0.95873114436E-01 -0.78133336056E-01 -0.35030341178E-01  0.13032786885E+00  0.21488516006E-01 0.  0.
         14    1    1    2    0    0  0.22724283832E-02 -0.18838429223E-01  0.13124490013E-01  0.23071683607E-01  0.00000000000E+00 0.  1.
     999901    1    3    3    0    0  0.93600686053E-01  0.96971765280E-01  0.21905851165E-01  0.89053044755E+00  0.88000000000E+00 0.  1.
        -11    1    4    4    0    0 -0.91732495234E-01 -0.74764662116E-01 -0.28220860435E-01  0.12166052551E+00  0.51100000000E-03 0. -1.
         11    1    4    4    0    0 -0.41406192026E-02 -0.33686739404E-02 -0.68094807433E-02  0.86673433353E-02  0.51100000000E-03 0.  1.
</event>
<event>
 8    1  0.1166736E+005  0.1043930E+01  0.7957747E-01            NaN
         13   -1    0    0    0    0  0.00000000000E+00  0.00000000000E+00  0.74505805969E-08  0.10566000000E+00  0.10566000000E+00 0.  1.
     999900   -1    0    0    0    0 -0.00000000000E+00 -0.00000000000E+00 -0.74505805969E-08  0.93827000000E+00  0.93827000000E+00 0. -1.
     999902    2    1    2    0    0 -0.86371100494E-02  0.83856954123E-02  0.20340259100E-01  0.10202943130E+01  0.10200205094E+01 0.  0.
     999903    2    3    3    0    0 -0.43797928670E-01 -0.83265777525E-01  0.90421533304E-01  0.13206705572E+00  0.20352033300E-01 0.  0.
         14    1    1    2    0    0  0.86371100494E-02 -0.83856954123E-02 -0.20340259100E-01  0.23635686955E-01  0.00000000000E+00 0. -1.
     999901    1    3    3    0    0  0.35160818621E-01  0.91651472937E-01 -0.70081274204E-01  0.88822725732E+00  0.88000000000E+00 0. -1.
        -11    1    4    4    0    0 -0.21375959761E-01 -0.59518988171E-01  0.54175913410E-01  0.83275040219E-01  0.51100000000E-03 0. -1.
         11    1    4    4    0    0 -0.22421968909E-01 -0.23746789354E-01  0.36245619894E-01  0.48792015503E-01  0.51100000000E-03 0.  1.
</event>
<event>
 8    1  0.1166736E+005  0.1043930E+01  0.7957747E-01            NaN
         13   -1    0    0    0    0  0.00000000000E+00  0.00000000000E+00  0.74505805969E-08  0.10566000000E+00  0.10566000000E+00 0.  1.
     999900   -1    0    0    0    0 -0.00000000000E+00 -0.00000000000E+00 -0.74505805969E-08  0.93827000000E+00  0.93827000000E+00 0. -1.
     999902    2    1    2    0    0  0.45009877292E-02  0.13943332046E-01 -0.17624048302E-01  0.10210109582E+01  0.10207536893E+01 0.  0.
     999903    2    3    3    0    0 -0.19161822520E-01 -0.12461236116E+00  0.19106244067E-01  0.12909912225E+00  0.20152389602E-01 0.  0.
         14    1    1    2    0    0 -0.45009877292E-02 -0.13943332046E-01  0.17624048302E-01  0.22919041813E-01  0.00000000000E+00 0.  1.
     999901    1    3    3    0    0  0.23662810249E-01  0.13855569321E+00 -0.36730292369E-01  0.89191183594E+00  0.88000000000E+00 0. -1.
        -11    1    4    4    0    0 -0.14977476075E-01 -0.11465207337E+00  0.12205954649E-01  0.11626981194E+00  0.51100000000E-03 0. -1.
         11    1    4    4    0    0 -0.41843464452E-02 -0.99602877894E-02  0.69002894183E-02  0.12829310312E-01  0.51100000000E-03 0.  1.
</event>
<event>
 8    1  0.1166736E+005  0.1043930E+01  0.7957747E-01            NaN
         13   -1    0    0    0    0  0.00000000000E+00  0.00000000000E+00  0.74505805969E-08  0.10566000000E+00  0.10566000000E+00 0. -1.
     999900   -1    0    0    0    0 -0.00000000000E+00 -0.00000000000E+00 -0.74505805969E-08  0.93827000000E+00  0.93827000000E+00 0.  1.
     999902    2    1    2    0    0  0.59588298739E-02  0.18452818466E-01 -0.16923177968E-01  0.10181927096E+01  0.10178673714E+01 0.  0.
     999903    2    3    3    0    0 -0.41663779709E-01 -0.11626033361E+00  0.15120908616E-01  0.12609273218E+00  0.20454816546E-01 0.  0.
         14    1    1    2    0    0 -0.59588298739E-02 -0.18452818466E-01  0.16923177968E-01  0.25737290365E-01  0.00000000000E+00 0. -1.
     999901    1    3    3    0    0  0.47622609583E-01  0.13471315208E+00 -0.32044086583E-01  0.89209997745E+00  0.88000000000E+00 0.  1.
        -11    1    4    4    0    0 -0.32505565363E-01 -0.71170636633E-01  0.20982401010E-02  0.78272185550E-01  0.51100000000E-03 0. -1.
         11    1    4    4    0    0 -0.91582143458E-02 -0.45089696981E-01  0.13022668515E-01  0.47820546631E-01  0.51100000000E-03 0.  1.
</event>
<event>
 8    1  0.1166736E+005  0.1043930E+01  0.7957747E-01            NaN
         13   -1    0    0    0    0  0.00000000000E+00  0.00000000000E+00  0.74505805969E-08  0.10566000000E+00  0.10566000000E+00 0. -1.
     999900   -1    0    0    0    0 -0.00000000000E+00 -0.00000000000E+00 -0.74505805969E-08  0.93827000000E+00  0.93827000000E+00 0.  1.
     999902    2    1    2    0    0 -0.12485316535E-01  0.49881548609E-02  0.23197016481E-01  0.10171183161E+01  0.10167648709E+01 0.  0.
     999903    2    3    3    0    0  0.31073638820E-01  0.51002261415E-01 -0.10814701500E+00  0.12511723139E+00  0.19792499514E-01 0.  0.
         14    1    1    2    0    0  0.12485316535E-01 -0.49881548609E-02 -0.23197016481E-01  0.26811683862E-01  0.00000000000E+00 0.  1.
     999901    1    3    3    0    0 -0.43558955355E-01 -0.46014106554E-01  0.13134403148E+00  0.89200108475E+00  0.88000000000E+00 0. -1.
        -11    1    4    4    0    0  0.42643151979E-02  0.22177218106E-03 -0.15771444948E-01  0.16347267777E-01  0.51100000000E-03 0. -1.
         11    1    4    4    0    0  0.26809323622E-01  0.50780489234E-01 -0.92375570053E-01  0.10876996361E+00  0.51100000000E-03 0.  1.
</event>
<event>
 8    1  0.1166736E+005  0.1043930E+01  0.7957747E-01            NaN
         13   -1    0    0    0    0  0.00000000000E+00  0.00000000000E+00  0.74505805969E-08  0.10566000000E+00  0.10566000000E+00 0.  1.
     999900   -1    0    0    0    0 -0.00000000000E+00 -0.00000000000E+00 -0.74505805969E-08  0.93827000000E+00  0.93827000000E+00 0.  1.
     999902    2    1    2    0    0  0.94587519516E-02  0.87878985869E-02  0.20484071694E-01  0.10197165256E+01  0.10194290069E+01 0.  0.
     999903    2    3    3    0    0 -0.57538854973E-02  0.99597611192E-01  0.85223648855E-01  0.13254740919E+00  0.18787070137E-01 0.  0.
         14    1    1    2    0    0 -0.94587519516E-02 -0.87878985869E-02 -0.20484071694E-01  0.24213474414E-01  0.00000000000E+00 0. -1.
     999901    1    3    3    0    0  0.15212637449E-01 -0.90809712606E-01 -0.64739577161E-01  0.88716911640E+00  0.88000000000E+00 0.  1.
        -11    1    4    4    0    0 -0.87834958182E-02  0.83481244608E-01  0.78115514819E-01  0.11466718265E+00  0.51100000000E-03 0. -1.
         11    1    4    4    0    0  0.30296103209E-02  0.16116366585E-01  0.71081340361E-02  0.17880226538E-01  0.51100000000E-03 0.  1.
</event>
<event>
 8    1  0.1166736E+005  0.1043930E+01  0.7957747E-01            NaN
         13   -1    0    0    0    0  0.00000000000E+00  0.00000000000E+00  0.74505805969E-08  0.10566000000E+00  0.10566000000E+00 0. -1.
     999900   -1    0    0    0    0 -0.00000000000E+00 -0.00000000000E+00 -0.74505805969E-08  0.93827000000E+00  0.93827000000E+00 0.  1.
     999902    2    1    2    0    0 -0.17657210892E-02  0.19582689513E-01 -0.12942106706E-01  0.10203907216E+01  0.10201191730E+01 0.  0.
     999903    2    3    3    0    0 -0.12234815391E-01 -0.11948462824E+00  0.39121221786E-01  0.12788867068E+00  0.19969351560E-01 0.  0.
         14    1    1    2    0    0  0.17657210892E-02 -0.19582689513E-01  0.12942106706E-01  0.23539278356E-01  0.00000000000E+00 0. -1.
     999901    1    3    3    0    0  0.10469094301E-01  0.13906731775E+00 -0.52063328492E-01  0.89250205096E+00  0.88000000000E+00 0. -1.
        -11    1    4    4    0    0 -0.23889048375E-02 -0.25534993549E-01  0.22853601784E-04  0.25651596542E-01  0.51100000000E-03 0.  1.
         11    1    4    4    0    0 -0.98459105531E-02 -0.93949634688E-01  0.39098368185E-01  0.10223707414E+00  0.51100000000E-03 0. -1.
</event>
<event>
 8    1  0.1166736E+005  0.1043930E+01  0.7957747E-01            NaN
         13   -1    0    0    0    0  0.00000000000E+00  0.00000000000E+00  0.74505805969E-08  0.10566000000E+00  0.10566000000E+00 0. -1.
     999900   -1    0    0    0    0 -0.00000000000E+00 -0.00000000000E+00 -0.74505805969E-08  0.93827000000E+00  0.93827000000E+00 0.  1.
     999902    2    1    2    0    0  0.59085037638E-02  0.22206890833E-01 -0.15218648170E-02  0.10209001826E+01  0.10206403923E+01 0.  0.
     999903    2    3    3    0    0  0.20474616241E-01 -0.23193189596E-01 -0.12559524024E+00  0.13091841794E+00  0.20207271743E-01 0.  0.
         14    1    1    2    0    0 -0.59085037638E-02 -0.22206890833E-01  0.15218648170E-02  0.23029817405E-01  0.00000000000E+00 0.  1.
     999901    1    3    3    0    0 -0.14566112477E-01  0.45400080429E-01  0.12407337542E+00  0.88998176466E+00  0.88000000000E+00 0. -1.
        -11    1    4    4    0    0  0.11367623448E-01 -0.14089582585E-01 -0.34969885004E-01  0.39381381114E-01  0.51100000000E-03 0.  1.
         11    1    4    4    0    0  0.91069927932E-02 -0.91036070110E-02 -0.90625355232E-01  0.91537036823E-01  0.51100000000E-03 0. -1.
</event>
<event>
 8    1  0.1166736E+005  0.1043930E+01  0.7957747E-01            NaN
         13   -1    0    0    0    0  0.00000000000E+00  0.00000000000E+00  0.74505805969E-08  0.10566000000E+00  0.10566000000E+00 0.  1.
     999900   -1    0    0    0    0 -0.00000000000E+00 -0.00000000000E+00 -0.74505805969E-08  0.93827000000E+00  0.93827000000E+00 0.  1.
     999902    2    1    2    0    0  0.92064091329E-02 -0.19935447751E-01  0.71544842605E-02  0.10208352670E+01  0.10205739933E+01 0.  0.
     999903    2    3    3    0    0  0.85865302630E-01 -0.41306283718E-01  0.91106208223E-01  0.13326488078E+00  0.19496871602E-01 0.  0.
         14    1    1    2    0    0 -0.92064091329E-02  0.19935447751E-01 -0.71544842605E-02  0.23094732975E-01  0.00000000000E+00 0. -1.
     999901    1    3    3    0    0 -0.76658893497E-01  0.21370835967E-01 -0.83951723962E-01  0.88757038624E+00  0.88000000000E+00 0.  1.
        -11    1    4    4    0    0  0.12343173936E-01 -0.13297624795E-01  0.12431658614E-01  0.21999727837E-01  0.51100000000E-03 0.  1.
         11    1    4    4    0    0  0.73522128694E-01 -0.28008658923E-01  0.78674549609E-01  0.11126515294E+00  0.51100000000E-03 0. -1.
</event>
<event>
 8    1  0.1166736E+005  0.1043930E+01  0.7957747E-01            NaN
         13   -1    0    0    0    0  0.00000000000E+00  0.00000000000E+00  0.74505805969E-08  0.10566000000E+00  0.10566000000E+00 0. -1.
     999900   -1    0    0    0    0 -0.00000000000E+00 -0.00000000000E+00 -0.74505805969E-08  0.93827000000E+00  0.93827000000E+00 0.  1.
     999902    2    1    2    0    0 -0.11158237289E-02  0.15283117709E-01 -0.21246230387E-01  0.10177341787E+01  0.10173969910E+01 0.  0.
     999903    2    3    3    0    0 -0.99446169849E-01 -0.70685182238E-01  0.28074259728E-01  0.12672805282E+00  0.19644328076E-01 0.  0.
         14    1    1    2    0    0  0.11158237289E-02 -0.15283117709E-01  0.21246230387E-01  0.26195821330E-01  0.00000000000E+00 0. -1.
     999901    1    3    3    0    0  0.98330346120E-01  0.85968299947E-01 -0.49320490115E-01  0.89100612585E+00  0.88000000000E+00 0.  1.
        -11    1    4    4    0    0 -0.12173107135E-01 -0.16301819543E-01  0.84708474362E-02  0.22044278964E-01  0.51100000000E-03 0.  1.
         11    1    4    4    0    0 -0.87273062714E-01 -0.54383362695E-01  0.19603412292E-01  0.10468377385E+00  0.51100000000E-03 0. -1.
</event>
<event>
 8    1  0.1166736E+005  0.1043930E+01  0.7957747E-01            NaN
         13   -1    0    0    0    0  0.00000000000E+00  0.00000000000E+00  0.74505805969E-08  0.10566000000E+00  0.10566000000E+00 0.  1.
     999900   -1    0    0    0    0 -0.00000000000E+00 -0.00000000000E+00 -0.74505805969E-08  0.93827000000E+00  0.93827000000E+00 0.  1.
     999902    2    1    2    0    0 -0.10623193291E-01  0.47509426333E-03  0.17593853773E-01  0.10233722365E+01  0.10231657308E+01 0.  0.
     999903    2    3    3    0    0 -0.55742793565E-01 -0.58727893107E-01  0.10711943173E+00  0.13570360397E+00  0.19613031680E-01 0.  0.
         14    1    1    2    0    0  0.10623193291E-01 -0.47509426333E-03 -0.17593853773E-01  0.20557763518E-01  0.00000000000E+00 0. -1.
     999901    1    3    3    0    0  0.45119600274E-01  0.59202987371E-01 -0.89525577960E-01  0.88766863252E+00  0.88000000000E+00 0.  1.
        -11    1    4    4    0    0 -0.19871387620E-01 -0.29548775973E-01  0.34318014431E-01  0.49456945346E-01  0.51100000000E-03 0. -1.
         11    1    4    4    0    0 -0.35871405945E-01 -0.29179117134E-01  0.72801417301E-01  0.86246658621E-01  0.51100000000E-03 0.  1.
</event>
<event>
 8    1  0.1166736E+005  0.1043930E+01  0.7957747E-01            NaN
         13   -1    0    0    0    0  0.00000000000E+00  0.00000000000E+00  0.74505805969E-08  0.10566000000E+00  0.10566000000E+00 0. -1.
     999900   -1    0    0    0    0 -0.00000000000E+00 -0.00000000000E+00 -0.74505805969E-08  0.93827000000E+00  0.93827000000E+00 0. -1.
     999902    2    1    2    0    0  0.82595650446E-03  0.10428100346E-02  0.24225773165E-01  0.10196677301E+01  0.10193790375E+01 0.  0.
     999903    2    3    3    0    0 -0.27997466742E-01 -0.10908160373E+00 -0.58256570170E-01  0.12851032916E+00  0.20938536618E-01 0.  0.
         14    1    1    2    0    0 -0.82595650446E-03 -0.10428100346E-02 -0.24225773165E-01  0.24262269935E-01  0.00000000000E+00 0.  1.
     999901    1    3    3    0    0  0.28823423246E-01  0.11012441376E+00  0.82482343335E-01  0.89115740091E+00  0.88000000000E+00 0.  1.
        -11    1    4    4    0    0 -0.11849344376E-01 -0.45942017925E-01 -0.13106973537E-01  0.49225296845E-01  0.51100000000E-03 0. -1.
         11    1    4    4    0    0 -0.16148122366E-01 -0.63139585803E-01 -0.45149596632E-01  0.79285032310E-01  0.51100000000E-03 0.  1.
</event>
<event>
 8    1  0.1166736E+005  0.1043930E+01  0.7957747E-01            NaN
         13   -1    0    0    0    0  0.00000000000E+00  0.00000000000E+00  0.74505805969E-08  0.10566000000E+00  0.10566000000E+00 0. -1.
     999900   -1    0    0    0    0 -0.00000000000E+00 -0.00000000000E+00 -0.74505805969E-08  0.93827000000E+00  0.93827000000E+00 0. -1.
     999902    2    1    2    0    0 -0.36445684706E-02 -0.23032475384E-01 -0.25602708328E-02  0.10204708272E+01  0.10202011451E+01 0.  0.
     999903    2    3    3    0    0 -0.47665143747E-01 -0.20752331688E-01  0.11860817037E+00  0.13107507657E+00  0.20252220106E-01 0.  0.
         14    1    1    2    0    0  0.36445684706E-02  0.23032475384E-01  0.25602708328E-02  0.23459172799E-01  0.00000000000E+00 0. -1.
     999901    1    3    3    0    0  0.44020575277E-01 -0.22801436962E-02 -0.12116844120E+00  0.88939575063E+00  0.88000000000E+00 0. -1.
        -11    1    4    4    0    0 -0.27532927902E-02 -0.39410217336E-02  0.29382755160E-01  0.29777838996E-01  0.51100000000E-03 0. -1.
         11    1    4    4    0    0 -0.44911850957E-01 -0.16811309955E-01  0.89225415211E-01  0.10129723757E+00  0.51100000000E-03 0.  1.
</event>
<event>
 8    1  0.1166736E+005  0.1043930E+01  0.7957747E-01            NaN
         13   -1    0    0    0    0  0.00000000000E+00  0.00000000000E+00  0.74505805969E-08  0.10566000000E+00  0.10566000000E+00 0.  1.
     999900   -1    0    0    0    0 -0.00000000000E+00 -0.00000000000E+00 -0.74505805969E-08  0.93827000000E+00  0.93827000000E+00 0. -1.
     999902    2    1    2    0    0  0.54649024817E-02  0.10674329628E-01  0.20243281786E-01  0.10204013594E+01  0.10201300590E+01 0.  0.
     999903    2    3    3    0    0 -0.50900852250E-01 -0.33105378142E-01  0.11609986244E+00  0.13232352204E+00  0.18533040853E-01 0.  0.
         14    1    1    2    0    0 -0.54649024817E-02 -0.10674329628E-01 -0.20243281786E-01  0.23528640624E-01  0.00000000000E+00 0. -1.
     999901    1    3    3    0    0  0.56365754732E-01  0.43779707770E-01 -0.95856580656E-01  0.88807783734E+00  0.88000000000E+00 0.  1.
        -11    1    4    4    0    0 -0.22276381769E-01 -0.22356156055E-01  0.45408838354E-01  0.55301524571E-01  0.51100000000E-03 0. -1.
         11    1    4    4    0    0 -0.28624470481E-01 -0.10749222087E-01  0.70691024089E-01  0.77021997465E-01  0.51100000000E-03 0.  1.
</event>
<event>
 8    1  0.1166736E+005  0.1043930E+01  0.7957747E-01            NaN
         13   -1    0    0    0    0  0.00000000000E+00  0.00000000000E+00  0.74505805969E-08  0.10566000000E+00  0.10566000000E+00 0. -1.
     999900   -1    0    0    0    0 -0.00000000000E+00 -0.00000000000E+00 -0.74505805969E-08  0.93827000000E+00  0.93827000000E+00 0. -1.
     999902    2    1    2    0    0  0.22894386039E-02  0.92599295847E-02 -0.20373685329E-01  0.10214338919E+01  0.10211861342E+01 0.  0.
     999903    2    3    3    0    0 -0.11008959964E+00  0.68102717940E-01  0.13262376791E-01  0.13170196226E+00  0.20293252181E-01 0.  0.
         14    1    1    2    0    0 -0.22894386039E-02 -0.92599295847E-02  0.20373685329E-01  0.22496108084E-01  0.00000000000E+00 0. -1.
     999901    1    3    3    0    0  0.11237903825E+00 -0.58842788356E-01 -0.33636062120E-01  0.88973192966E+00  0.88000000000E+00 0. -1.
        -11    1    4    4    0    0 -0.22169368224E-01  0.90751272167E-02 -0.43407887161E-02  0.24350408398E-01  0.51100000000E-03 0.  1.
         11    1    4    4    0    0 -0.87920231418E-01  0.59027590724E-01  0.17603165507E-01  0.10735155386E+00  0.51100000000E-03 0. -1.
</event>
<event>
 8    1  0.1166736E+005  0.1043930E+01  0.7957747E-01            NaN
         13   -1    0    0    0    0  0.00000000000E+00  0.00000000000E+00  0.74505805969E-08  0.10566000000E+00  0.10566000000E+00 0.  1.
     999900   -1    0    0    0    0 -0.00000000000E+00 -0.00000000000E+00 -0.74505805969E-08  0.93827000000E+00  0.93827000000E+00 0.  1.
     999902    2    1    2    0    0 -0.13397913175E-02  0.10788246465E-01  0.18060105920E-01  0.10228504192E+01  0.10226331851E+01 0.  0.
     999903    2    3    3    0    0 -0.10668647698E+00 -0.51757072898E-01 -0.52863368694E-01  0.13153679287E+00  0.21132750966E-01 0.  0.
         14    1    1    2    0    0  0.13397913175E-02 -0.10788246465E-01 -0.18060105920E-01  0.21079580840E-01  0.00000000000E+00 0. -1.
     999901    1    3    3    0    0  0.10534668567E+00  0.62545319362E-01  0.70923474614E-01  0.89131362629E+00  0.88000000000E+00 0. -1.
        -11    1    4    4    0    0 -0.18364745792E-01 -0.79542788997E-02 -0.18129348073E-01  0.27008680519E-01  0.51100000000E-03 0. -1.
         11    1    4    4    0    0 -0.88321731191E-01 -0.43802793998E-01 -0.34734020620E-01  0.10452811235E+00  0.51100000000E-03 0.  1.
</event>
<event>
 8    1  0.1166736E+005  0.1043930E+01  0.7957747E-01            NaN
         13   -1    0    0    0    0  0.00000000000E+00  0.00000000000E+00  0.74505805969E-08  0.10566000000E+00  0.10566000000E+00 0. -1.
     999900   -1    0    0    0    0 -0.00000000000E+00 -0.00000000000E+00 -0.74505805969E-08  0.93827000000E+00  0.93827000000E+00 0.  1.
     999902    2    1    2    0    0 -0.44830178748E-02 -0.22275717213E-01 -0.58070767312E-02  0.10204773420E+01  0.10202078114E+01 0.  0.
     999903    2    3    3    0    0 -0.72484987853E-01 -0.91580536517E-01 -0.61253908562E-01  0.13340249902E+00  0.20077781220E-01 0.  0.
         14    1    1    2    0    0  0.44830178748E-02  0.22275717213E-01  0.58070767312E-02  0.23452657989E-01  0.00000000000E+00 0.  1.
     999901    1    3    3    0    0  0.68001969979E-01  0.69304819305E-01  0.55446831831E-01  0.88707484299E+00  0.88000000000E+00 0.  1.
        -11    1    4    4    0    0 -0.55835795162E-01 -0.62462784915E-01 -0.51985508844E-01  0.98600150971E-01  0.51100000000E-03 0.  1.
         11    1    4    4    0    0 -0.16649192691E-01 -0.29117751602E-01 -0.92683997183E-02  0.34802348053E-01  0.51100000000E-03 0. -1.
</event>
<event>
 8    1  0.1166736E+005  0.1043930E+01  0.7957747E-01            NaN
         13   -1    0    0    0    0  0.00000000000E+00  0.00000000000E+00  0.74505805969E-08  0.10566000000E+00  0.10566000000E+00 0. -1.
     999900   -1    0    0    0    0 -0.00000000000E+00 -0.00000000000E+00 -0.74505805969E-08  0.93827000000E+00  0.93827000000E+00 0. -1.
     999902    2    1    2    0    0  0.10835502909E-01  0.17819792044E-01  0.12198810179E-01  0.10197687897E+01  0.10194825258E+01 0.  0.
     999903    2    3    3    0    0  0.85204102914E-01  0.26146178669E-02 -0.95483142750E-01  0.12996134485E+00  0.22502116007E-01 0.  0.
         14    1    1    2    0    0 -0.10835502909E-01 -0.17819792044E-01 -0.12198810179E-01  0.24161210267E-01  0.00000000000E+00 0.  1.
     999901    1    3    3    0    0 -0.74368600005E-01  0.15205174177E-01  0.10768195293E+00  0.88980744489E+00  0.88000000000E+00 0.  1.
        -11    1    4    4    0    0  0.65788263986E-01 -0.75600282307E-02 -0.72752507774E-01  0.98379053733E-01  0.51100000000E-03 0. -1.
         11    1    4    4    0    0  0.19415838929E-01  0.10174646098E-01 -0.22730634976E-01  0.31582291113E-01  0.51100000000E-03 0.  1.
</event>
<event>
 8    1  0.1166736E+005  0.1043930E+01  0.7957747E-01            NaN
         13   -1    0    0    0    0  0.00000000000E+00  0.00000000000E+00  0.74505805969E-08  0.10566000000E+00  0.10566000000E+00 0. -1.
     999900   -1    0    0    0    0 -0.00000000000E+00 -0.00000000000E+00 -0.74505805969E-08  0.93827000000E+00  0.93827000000E+00 0. -1.
     999902    2    1    2    0    0  0.50995509742E-02  0.18053652174E-01  0.12201572319E-01  0.10215510334E+01  0.10213058777E+01 0.  0.
     999903    2    3    3    0    0 -0.58857347231E-01  0.11707374163E+00 -0.14231743879E-01  0.13329758811E+00  0.19881050277E-01 0.  0.
         14    1    1    2    0    0 -0.50995509742E-02 -0.18053652174E-01 -0.12201572319E-01  0.22378966554E-01  0.00000000000E+00 0.  1.
     999901    1    3    3    0    0  0.63956898205E-01 -0.99020089456E-01  0.26433316198E-01  0.88825344533E+00  0.88000000000E+00 0. -1.
        -11    1    4    4    0    0 -0.48418500774E-01  0.79654958167E-01 -0.49258646350E-02  0.93347677214E-01  0.51100000000E-03 0. -1.
         11    1    4    4    0    0 -0.10438846456E-01  0.37418783463E-01 -0.93058792442E-02  0.39949910897E-01  0.51100000000E-03 0.  1.
</event>
<event>
 8    1  0.1166736E+005  0.1043930E+01  0.7957747E-01            NaN
         13   -1    0    0    0    0  0.00000000000E+00  0.00000000000E+00  0.74505805969E-08  0.10566000000E+00  0.10566000000E+00 0.  1.
     999900   -1    0    0    0    0 -0.00000000000E+00 -0.00000000000E+00 -0.74505805969E-08  0.93827000000E+00  0.93827000000E+00 0. -1.
     999902    2    1    2    0    0  0.18383801224E-01  0.60060055137E-02 -0.13175074291E-01  0.10205287429E+01  0.10202604061E+01 0.  0.
     999903    2    3    3    0    0  0.10783044145E+00  0.63511296737E-01  0.38154695506E-01  0.13264231707E+00  0.21842952448E-01 0.  0.
         14    1    1    2    0    0 -0.18383801224E-01 -0.60060055137E-02  0.13175074291E-01  0.23401257065E-01  0.00000000000E+00 0.  1.
     999901    1    3    3    0    0 -0.89446640228E-01 -0.57505291223E-01 -0.51329769797E-01  0.88788642586E+00  0.88000000000E+00 0.  1.
        -11    1    4    4    0    0  0.40258802902E-01  0.35130325799E-01  0.20681631459E-01  0.57296614234E-01  0.51100000000E-03 0.  1.
         11    1    4    4    0    0  0.67571638550E-01  0.28380970938E-01  0.17473064047E-01  0.75345702836E-01  0.51100000000E-03 0. -1.
</event>
<event>
 8    1  0.1166736E+005  0.1043930E+01  0.7957747E-01            NaN
         13   -1    0    0    0    0  0.00000000000E+00  0.00000000000E+00  0.74505805969E-08  0.10566000000E+00  0.10566000000E+00 0. -1.
     999900   -1    0    0    0    0 -0.00000000000E+00 -0.00000000000E+00 -0.74505805969E-08  0.93827000000E+00  0.93827000000E+00 0. -1.
     999902    2    1    2    0    0  0.54920304017E-02  0.20229951853E-01 -0.11807542876E-01  0.10198710844E+01  0.10195872682E+01 0.  0.
     999903    2    3    3    0    0  0.54175235289E-01 -0.77422290705E-01  0.84362741205E-01  0.12793233179E+00  0.17900899316E-01 0.  0.
         14    1    1    2    0    0 -0.54920304017E-02 -0.20229951853E-01  0.11807542876E-01  0.24058915576E-01  0.00000000000E+00 0. -1.
     999901    1    3    3    0    0 -0.48683204887E-01  0.97652242558E-01 -0.96170284081E-01  0.89193875264E+00  0.88000000000E+00 0. -1.
        -11    1    4    4    0    0  0.19950156579E-01 -0.43000721329E-01  0.37306639615E-01  0.60325096458E-01  0.51100000000E-03 0. -1.
         11    1    4    4    0    0  0.34225078710E-01 -0.34421569377E-01  0.47056101590E-01  0.67607235330E-01  0.51100000000E-03 0.  1.
</event>
<event>
 8    1  0.1166736E+005  0.1043930E+01  0.7957747E-01            NaN
         13   -1    0    0    0    0  0.00000000000E+00  0.00000000000E+00  0.74505805969E-08  0.10566000000E+00  0.10566000000E+00 0. -1.
     999900   -1    0    0    0    0 -0.00000000000E+00 -0.00000000000E+00 -0.74505805969E-08  0.93827000000E+00  0.93827000000E+00 0. -1.
     999902    2    1    2    0    0  0.26867822327E-04 -0.66058103770E-02  0.22736482406E-01  0.10202533219E+01  0.10199785565E+01 0.  0.
     999903    2    3    3    0    0 -0.19527966411E-01 -0.31917527982E-02  0.13036621391E+00  0.13347363878E+00  0.20696225800E-01 0.  0.
         14    1    1    2    0    0 -0.26867822327E-04  0.66058103770E-02 -0.22736482406E-01  0.23676678078E-01  0.00000000000E+00 0.  1.
     999901    1    3    3    0    0  0.19554834233E-01 -0.34140575788E-02 -0.10762973150E+00  0.88677968314E+00  0.88000000000E+00 0. -1.
        -11    1    4    4    0    0 -0.15880581405E-02  0.13562834304E-03  0.77990169388E-01  0.78008127563E-01  0.51100000000E-03 0.  1.
         11    1    4    4    0    0 -0.17939908270E-01 -0.33273811413E-02  0.52376044520E-01  0.55465511217E-01  0.51100000000E-03 0. -1.
</event>
<event>
 8    1  0.1166736E+005  0.1043930E+01  0.7957747E-01            NaN
         13   -1    0    0    0    0  0.00000000000E+00  0.00000000000E+00  0.74505805969E-08  0.10566000000E+00  0.10566000000E+00 0. -1.
     999900   -1    0    0    0    0 -0.00000000000E+00 -0.00000000000E+00 -0.74505805969E-08  0.93827000000E+00  0.93827000000E+00 0.  1.
     999902    2    1    2    0    0  0.15854336291E-02  0.11414539574E-01 -0.22368802991E-01  0.10187671571E+01  0.10184563573E+01 0.  0.
     999903    2    3    3    0    0 -0.46816192959E-01  0.32590235628E-01  0.11166078323E+00  0.12705248442E+00  0.20501802450E-01 0.  0.
         14    1    1    2    0    0 -0.15854336291E-02 -0.11414539574E-01  0.22368802991E-01  0.25162842859E-01  0.00000000000E+00 0. -1.
     999901    1    3    3    0    0  0.48401626588E-01 -0.21175696054E-01 -0.13402958623E+00  0.89171467272E+00  0.88000000000E+00 0.  1.
        -11    1    4    4    0    0 -0.16585950836E-01  0.16030723696E-01  0.65467816577E-01  0.69414508539E-01  0.51100000000E-03 0. -1.
         11    1    4    4    0    0 -0.30230242122E-01  0.16559511932E-01  0.46192966657E-01  0.57637975882E-01  0.51100000000E-03 0.  1.
</event>
<event>
 8    1  0.1166736E+005  0.1043930E+01  0.7957747E-01            NaN
         13   -1    0    0    0    0  0.00000000000E+00  0.00000000000E+00  0.74505805969E-08  0.10566000000E+00  0.10566000000E+00 0. -1.
     999900   -1    0    0    0    0 -0.00000000000E+00 -0.00000000000E+00 -0.74505805969E-08  0.93827000000E+00  0.93827000000E+00 0.  1.
     999902    2    1    2    0    0 -0.23529751906E-01 -0.35448204717E-02 -0.16198142001E-03  0.10201341765E+01  0.10198566060E+01 0.  0.
     999903    2    3    3    0    0 -0.12523543898E+00  0.35449560942E-01 -0.20359019231E-01  0.13318855874E+00  0.19598876696E-01 0.  0.
         14    1    1    2    0    0  0.23529751906E-01  0.35448204717E-02  0.16198142001E-03  0.23795823476E-01  0.00000000000E+00 0. -1.
     999901    1    3    3    0    0  0.10170568708E+00 -0.38994381413E-01  0.20197037811E-01  0.88694561778E+00  0.88000000000E+00 0. -1.
        -11    1    4    4    0    0 -0.74782190251E-01  0.27574188103E-01 -0.50005478398E-02  0.79862246575E-01  0.51100000000E-03 0. -1.
         11    1    4    4    0    0 -0.50453248731E-01  0.78753728383E-02 -0.15358471392E-01  0.53326312167E-01  0.51100000000E-03 0.  1.
</event>
<event>
 8    1  0.1166736E+005  0.1043930E+01  0.7957747E-01            NaN
         13   -1    0    0    0    0  0.00000000000E+00  0.00000000000E+00  0.74505805969E-08  0.10566000000E+00  0.10566000000E+00 0. -1.
     999900   -1    0    0    0    0 -0.00000000000E+00 -0.00000000000E+00 -0.74505805969E-08  0.93827000000E+00  0.93827000000E+00 0.  1.
     999902    2    1    2    0    0  0.96771711508E-02  0.11603047577E-01 -0.18761708816E-01  0.10198409969E+01  0.10195564618E+01 0.  0.
     999903    2    3    3    0    0  0.75150435002E-01 -0.14788104489E-01 -0.10645078820E+00  0.13266986578E+00  0.20081012436E-01 0.  0.
         14    1    1    2    0    0 -0.96771711508E-02 -0.11603047577E-01  0.18761708816E-01  0.24089003139E-01  0.00000000000E+00 0. -1.
     999901    1    3    3    0    0 -0.65473263851E-01  0.26391152066E-01  0.87689079388E-01  0.88717113109E+00  0.88000000000E+00 0. -1.
        -11    1    4    4    0    0  0.15324173176E-01 -0.45514067522E-02 -0.37738083759E-01  0.40987433119E-01  0.51100000000E-03 0. -1.
         11    1    4    4    0    0  0.59826261826E-01 -0.10236697737E-01 -0.68712704445E-01  0.91682432657E-01  0.51100000000E-03 0.  1.
</event>
<event>
 8    1  0.1166736E+005  0.1043930E+01  0.7957747E-01            NaN
         13   -1    0    0    0    0  0.00000000000E+00  0.00000000000E+00  0.74505805969E-08  0.10566000000E+00  0.10566000000E+00 0. -1.
     999900   -1    0    0    0    0 -0.00000000000E+00 -0.00000000000E+00 -0.74505805969E-08  0.93827000000E+00  0.93827000000E+00 0. -1.
     999902    2    1    2    0    0  0.11007241855E-01 -0.14956643014E-01 -0.14428733875E-01  0.10204130082E+01  0.10201419795E+01 0.  0.
     999903    2    3    3    0    0  0.12294956464E+00 -0.95680006058E-02 -0.45099873807E-01  0.13277522173E+00  0.19675334946E-01 0.  0.
         14    1    1    2    0    0 -0.11007241855E-01  0.14956643014E-01  0.14428733875E-01  0.23516991830E-01  0.00000000000E+00 0. -1.
     999901    1    3    3    0    0 -0.11194232279E+00 -0.53886424083E-02  0.30671139932E-01  0.88763778644E+00  0.88000000000E+00 0. -1.
        -11    1    4    4    0    0  0.26263481804E-01 -0.10130943270E-01 -0.88171932970E-02  0.29502720327E-01  0.51100000000E-03 0. -1.
         11    1    4    4    0    0  0.96686082839E-01  0.56294266410E-03 -0.36282680510E-01  0.10327250140E+00  0.51100000000E-03 0.  1.
</event>
<event>
 8    1  0.1166736E+005  0.1043930E+01  0.7957747E-01            NaN
         13   -1    0    0    0    0  0.00000000000E+00  0.00000000000E+00  0.74505805969E-08  0.10566000000E+00  0.10566000000E+00 0.  1.
     999900   -1    0    0    0    0 -0.00000000000E+00 -0.00000000000E+00 -0.74505805969E-08  0.93827000000E+00  0.93827000000E+00 0.  1.
     999902    2    1    2    0    0  0.13680367999E-01  0.10345883827E-01  0.16016451200E-01  0.10204626506E+01  0.10201927782E+01 0.  0.
     999903    2    3    3    0    0  0.69348837394E-01  0.74824361977E-01 -0.79584682339E-01  0.13119552007E+00  0.21693234681E-01 0.  0.
         14    1    1    2    0    0 -0.13680367999E-01 -0.10345883827E-01 -0.16016451200E-01  0.23467349441E-01  0.00000000000E+00 0. -1.
     999901    1    3    3    0    0 -0.55668469395E-01 -0.64478478150E-01  0.95601133539E-01  0.88926713049E+00  0.88000000000E+00 0. -1.
        -11    1    4    4    0    0  0.47535478106E-01  0.49961973006E-01 -0.40443288501E-01  0.79948365407E-01  0.51100000000E-03 0.  1.
         11    1    4    4    0    0  0.21813359288E-01  0.24862388972E-01 -0.39141393838E-01  0.51247154666E-01  0.51100000000E-03 0. -1.
</event>
<event>
 8    1  0.1166736E+005  0.1043930E+01  0.7957747E-01            NaN
         13   -1    0    0    0    0  0.00000000000E+00  0.00000000000E+00  0.74505805969E-08  0.10566000000E+00  0.10566000000E+00 0.  1.
     999900   -1    0    0    0    0 -0.00000000000E+00 -0.00000000000E+00 -0.74505805969E-08  0.93827000000E+00  0.93827000000E+00 0.  1.
     999902    2    1    2    0    0 -0.22465563243E-01 -0.67674181644E-02  0.25011836470E-02  0.10203343351E+01  0.10200614688E+01 0.  0.
     999903    2    3    3    0    0 -0.42688709087E-01  0.11265204819E+00  0.47364325508E-01  0.13090604345E+00  0.19498795710E-01 0.  0.
         14    1    1    2    0    0  0.22465563243E-01  0.67674181644E-02 -0.25011836470E-02  0.23595664858E-01  0.00000000000E+00 0. -1.
     999901    1    3    3    0    0  0.20223145844E-01 -0.11941946636E+00 -0.44863141861E-01  0.88942829170E+00  0.88000000000E+00 0.  1.
        -11    1    4    4    0    0 -0.37777341636E-01  0.78548223902E-01  0.29007314369E-01  0.91862051072E-01  0.51100000000E-03 0. -1.
         11    1    4    4    0    0 -0.49113674509E-02  0.34103824291E-01  0.18357011139E-01  0.39043992374E-01  0.51100000000E-03 0.  1.
</event>
<event>
 8    1  0.1166736E+005  0.1043930E+01  0.7957747E-01            NaN
         13   -1    0    0    0    0  0.00000000000E+00  0.00000000000E+00  0.74505805969E-08  0.10566000000E+00  0.10566000000E+00 0. -1.
     999900   -1    0    0    0    0 -0.00000000000E+00 -0.00000000000E+00 -0.74505805969E-08  0.93827000000E+00  0.93827000000E+00 0.  1.
     999902    2    1    2    0    0 -0.11985401085E-01  0.19006561855E-01  0.11168615542E-01  0.10188374273E+01  0.10185283825E+01 0.  0.
     999903    2    3    3    0    0  0.20573454899E-01 -0.11853939552E+00  0.33062253529E-01  0.12728916674E+00  0.25190554254E-01 0.  0.
         14    1    1    2    0    0  0.11985401085E-01 -0.19006561855E-01 -0.11168615542E-01  0.25092572722E-01  0.00000000000E+00 0.  1.
     999901    1    3    3    0    0 -0.32558855984E-01  0.13754595737E+00 -0.21893637987E-01  0.89154826054E+00  0.88000000000E+00 0.  1.
        -11    1    4    4    0    0  0.21812043672E-01 -0.52538510740E-01  0.16366301703E-01  0.59196092036E-01  0.51100000000E-03 0. -1.
         11    1    4    4    0    0 -0.12385887739E-02 -0.66000884778E-01  0.16695951826E-01  0.68093074699E-01  0.51100000000E-03 0.  1.
</event>
<event>
 8    1  0.1166736E+005  0.1043930E+01  0.7957747E-01            NaN
         13   -1    0    0    0    0  0.00000000000E+00  0.00000000000E+00  0.74505805969E-08  0.10566000000E+00  0.10566000000E+00 0. -1.
     999900   -1    0    0    0    0 -0.00000000000E+00 -0.00000000000E+00 -0.74505805969E-08  0.93827000000E+00  0.93827000000E+00 0. -1.
     999902    2    1    2    0    0  0.91831765752E-02 -0.17930809267E-01 -0.13023840352E-01  0.10199411470E+01  0.10196590009E+01 0.  0.
     999903    2    3    3    0    0  0.11775295778E+00 -0.13514150340E-02  0.53438397090E-01  0.13062708392E+00  0.18444169289E-01 0.  0.
         14    1    1    2    0    0 -0.91831765752E-02  0.17930809267E-01  0.13023840352E-01  0.23988853047E-01  0.00000000000E+00 0. -1.
     999901    1    3    3    0    0 -0.10856978121E+00 -0.16579394233E-01 -0.66462237443E-01  0.88931406303E+00  0.88000000000E+00 0. -1.
        -11    1    4    4    0    0  0.64172089406E-01  0.36655507168E-02  0.20224010113E-01  0.67385198871E-01  0.51100000000E-03 0. -1.
         11    1    4    4    0    0  0.53580868375E-01 -0.50169657508E-02  0.33214386977E-01  0.63241885048E-01  0.51100000000E-03 0.  1.
</event>
<event>
 8    1  0.1166736E+005  0.1043930E+01  0.7957747E-01            NaN
         13   -1    0    0    0    0  0.00000000000E+00  0.00000000000E+00  0.74505805969E-08  0.10566000000E+00  0.10566000000E+00 0. -1.
     999900   -1    0    0    0    0 -0.00000000000E+00 -0.00000000000E+00 -0.74505805969E-08  0.93827000000E+00  0.93827000000E+00 0.  1.
     999902    2    1    2    0    0  0.15308752586E-01 -0.17556873404E-01 -0.76121258951E-02  0.10194239565E+01  0.10191293622E+01 0.  0.
     999903    2    3    3    0    0  0.12289579561E+00 -0.31938321604E-01  0.29578336990E-01  0.13197540673E+00  0.20474300895E-01 0.  0.
         14    1    1    2    0    0 -0.15308752586E-01  0.17556873404E-01  0.76121258951E-02  0.24506043543E-01  0.00000000000E+00 0. -1.
     999901    1    3    3    0    0 -0.10758704303E+00  0.14381448199E-01 -0.37190462885E-01  0.88744854972E+00  0.88000000000E+00 0.  1.
        -11    1    4    4    0    0  0.35901943389E-01 -0.14936673459E-01  0.17016879348E-01  0.42448663782E-01  0.51100000000E-03 0. -1.
         11    1    4    4    0    0  0.86993852223E-01 -0.17001648145E-01  0.12561457642E-01  0.89526742950E-01  0.51100000000E-03 0.  1.
</event>
<event>
 8    1  0.1166736E+005  0.1043930E+01  0.7957747E-01            NaN
         13   -1    0    0    0    0  0.00000000000E+00  0.00000000000E+00  0.74505805969E-08  0.10566000000E+00  0.10566000000E+00 0.  1.
     999900   -1    0    0    0    0 -0.00000000000E+00 -0.00000000000E+00 -0.74505805969E-08  0.93827000000E+00  0.93827000000E+00 0. -1.
     999902    2    1    2    0    0  0.84835301367E-02 -0.93245284957E-02 -0.18475935886E-01  0.10215631200E+01  0.10213182319E+01 0.  0.
     999903    2    3    3    0    0 -0.30949283103E-01 -0.66955228800E-02 -0.12866656036E+00  0.13381099683E+00  0.18644327967E-01 0.  0.
         14    1    1    2    0    0 -0.84835301367E-02  0.93245284957E-02  0.18475935886E-01  0.22366880026E-01  0.00000000000E+00 0.  1.
     999901    1    3    3    0    0  0.39432813240E-01 -0.26290056157E-02  0.11019062448E+00  0.88775212315E+00  0.88000000000E+00 0.  1.
        -11    1    4    4    0    0 -0.14554828690E-01 -0.12536957702E-01 -0.72839695045E-01  0.75331936401E-01  0.51100000000E-03 0. -1.
         11    1    4    4    0    0 -0.16394454413E-01  0.58414348223E-02 -0.55826865316E-01  0.58479060426E-01  0.51100000000E-03 0.  1.
</event>
<event>
 8    1  0.1166736E+005  0.1043930E+01  0.7957747E-01            NaN
         13   -1    0    0    0    0  0.00000000000E+00  0.00000000000E+00  0.74505805969E-08  0.10566000000E+00  0.10566000000E+00 0.  1.
     999900   -1    0    0    0    0 -0.00000000000E+00 -0.00000000000E+00 -0.74505805969E-08  0.93827000000E+00  0.93827000000E+00 0.  1.
     999902    2    1    2    0    0 -0.96671181425E-02 -0.20615144804E-01  0.61383550305E-02  0.10203478718E+01  0.10200753221E+01 0.  0.
     999903    2    3    3    0    0 -0.68792862126E-01  0.93037396681E-01 -0.54300273506E-01  0.12901988412E+00  0.17583962413E-01 0.  0.
         14    1    1    2    0    0  0.96671181425E-02  0.20615144804E-01 -0.61383550305E-02  0.23582128211E-01  0.00000000000E+00 0.  1.
     999901    1    3    3    0    0  0.59125743983E-01 -0.11365254149E+00  0.60438628536E-01  0.89132798767E+00  0.88000000000E+00 0. -1.
        -11    1    4    4    0    0 -0.42908487081E-01  0.68426078154E-01 -0.43304156793E-01  0.91644844654E-01  0.51100000000E-03 0.  1.
         11    1    4    4    0    0 -0.25884375045E-01  0.24611318527E-01 -0.10996116712E-01  0.37375039463E-01  0.51100000000E-03 0. -1.
</event>
<event>
 8    1  0.1166736E+005  0.1043930E+01  0.7957747E-01            NaN
         13   -1    0    0    0    0  0.00000000000E+00  0.00000000000E+00  0.74505805969E-08  0.10566000000E+00  0.10566000000E+00 0.  1.
     999900   -1    0    0    0    0 -0.00000000000E+00 -0.00000000000E+00 -0.74505805969E-08  0.93827000000E+00  0.93827000000E+00 0.  1.
     999902    2    1    2    0    0 -0.15956407372E-01 -0.27760647315E-02  0.17125806182E-01  0.10203586889E+01  0.10200863920E+01 0.  0.
     999903    2    3    3    0    0  0.70761471987E-03 -0.11081487192E+00 -0.64624533379E-01  0.12983457829E+00  0.20006270213E-01 0.  0.
         14    1    1    2    0    0  0.15956407372E-01  0.27760647315E-02 -0.17125806182E-01  0.23571311142E-01  0.00000000000E+00 0.  1.
     999901    1    3    3    0    0 -0.16664022091E-01  0.10803880719E+00  0.81750339561E-01  0.89052411057E+00  0.88000000000E+00 0. -1.
        -11    1    4    4    0    0 -0.80860035473E-02 -0.40022586286E-01 -0.18100079808E-01  0.44666149112E-01  0.51100000000E-03 0.  1.
         11    1    4    4    0    0  0.87936182671E-02 -0.70792285630E-01 -0.46524453571E-01  0.85168429175E-01  0.51100000000E-03 0. -1.
</event>
<event>
 8    1  0.1166736E+005  0.1043930E+01  0.7957747E-01            NaN
         13   -1    0    0    0    0  0.00000000000E+00  0.00000000000E+00  0.74505805969E-08  0.10566000000E+00  0.10566000000E+00 0.  1.
     999900   -1    0    0    0    0 -0.00000000000E+00 -0.00000000000E+00 -0.74505805969E-08  0.93827000000E+00  0.93827000000E+00 0. -1.
     999902    2    1    2    0    0 -0.38003386576E-02 -0.14210450141E-01  0.20363427353E-01  0.10188093185E+01  0.10184995723E+01 0.  0.
     999903    2    3    3    0    0  0.11775068265E+00  0.24862097926E-01 -0.37896104728E-01  0.12768896303E+00  0.19621655107E-01 0.  0.
         14    1    1    2    0    0  0.38003386576E-02  0.14210450141E-01 -0.20363427353E-01  0.25120681533E-01  0.00000000000E+00 0. -1.
     999901    1    3    3    0    0 -0.12155102131E+00 -0.39072548066E-01  0.58259532081E-01  0.89112035544E+00  0.88000000000E+00 0.  1.
        -11    1    4    4    0    0  0.30921198885E-01  0.10680163047E-01 -0.18532227622E-01  0.37601742045E-01  0.51100000000E-03 0. -1.
         11    1    4    4    0    0  0.86829483763E-01  0.14181934879E-01 -0.19363877107E-01  0.90087220987E-01  0.51100000000E-03 0.  1.
</event>
<event>
 8    1  0.1166736E+005  0.1043930E+01  0.7957747E-01            NaN
         13   -1    0    0    0    0  0.00000000000E+00  0.00000000000E+00  0.74505805969E-08  0.10566000000E+00  0.10566000000E+00 0. -1.
     999900   -1    0    0    0    0 -0.00000000000E+00 -0.00000000000E+00 -0.74505805969E-08  0.93827000000E+00  0.93827000000E+00 0. -1.
     999902    2    1    2    0    0  0.15028577920E-01 -0.16165817752E-01  0.11185271610E-01  0.10191852608E+01  0.10188848285E+01 0.  0.
     999903    2    3    3    0    0  0.25508264642E-01 -0.10584005034E+00  0.72561156175E-01  0.13243936086E+00  0.20549333295E-01 0.  0.
         14    1    1    2    0    0 -0.15028577920E-01  0.16165817752E-01 -0.11185271610E-01  0.24744739217E-01  0.00000000000E+00 0.  1.
     999901    1    3    3    0    0 -0.10479686722E-01  0.89674232587E-01 -0.61375884565E-01  0.88674589992E+00  0.88000000000E+00 0.  1.
        -11    1    4    4    0    0  0.16408396446E-01 -0.82115603143E-01  0.64741634660E-01  0.10584870397E+00  0.51100000000E-03 0.  1.
         11    1    4    4    0    0  0.90998681958E-02 -0.23724447196E-01  0.78195215146E-02  0.26590656887E-01  0.51100000000E-03 0. -1.
</event>
<event>
 8    1  0.1166736E+005  0.1043930E+01  0.7957747E-01            NaN
         13   -1    0    0    0    0  0.00000000000E+00  0.00000000000E+00  0.74505805969E-08  0.10566000000E+00  0.10566000000E+00 0. -1.
     999900   -1    0    0    0    0 -0.00000000000E+00 -0.00000000000E+00 -0.74505805969E-08  0.93827000000E+00  0.93827000000E+00 0. -1.
     999902    2    1    2    0    0 -0.19275901470E-01  0.12835096517E-01  0.53492388917E-02  0.10201620713E+01  0.10198851588E+01 0.  0.
     999903    2    3    3    0    0 -0.66314605567E-01  0.11153042292E+00 -0.20679027256E-01  0.13301446360E+00  0.20701768261E-01 0.  0.
         14    1    1    2    0    0  0.19275901470E-01 -0.12835096517E-01 -0.53492388917E-02  0.23767928744E-01  0.00000000000E+00 0.  1.
     999901    1    3    3    0    0  0.47038704097E-01 -0.98695326404E-01  0.26028266148E-01  0.88714760766E+00  0.88000000000E+00 0.  1.
        -11    1    4    4    0    0 -0.59903535415E-01  0.10243783943E+00 -0.12767763496E-01  0.11935334687E+00  0.51100000000E-03 0.  1.
         11    1    4    4    0    0 -0.64110701517E-02  0.90925834880E-02 -0.79112637603E-02  0.13661116728E-01  0.51100000000E-03 0. -1.
</event>
<event>
 8    1  0.1166736E+005  0.1043930E+01  0.7957747E-01            NaN
         13   -1    0    0    0    0  0.00000000000E+00  0.00000000000E+00  0.74505805969E-08  0.10566000000E+00  0.10566000000E+00 0.  1.
     999900   -1    0    0    0    0 -0.00000000000E+00 -0.00000000000E+00 -0.74505805969E-08  0.93827000000E+00  0.93827000000E+00 0. -1.
     999902    2    1    2    0    0 -0.88651662529E-02 -0.49934675470E-02  0.21647512921E-01  0.10200105371E+01  0.10197300403E+01 0.  0.
     999903    2    3    3    0    0  0.44139837102E-01 -0.38293762667E-01 -0.11188746915E+00  0.12773813950E+00  0.19582876531E-01 0.  0.
         14    1    1    2    0    0  0.88651662529E-02  0.49934675470E-02 -0.21647512921E-01  0.23919462923E-01  0.00000000000E+00 0. -1.
     999901    1    3    3    0    0 -0.53005003355E-01  0.33300295120E-01  0.13353498207E+00  0.89227239757E+00  0.88000000000E+00 0.  1.
        -11    1    4    4    0    0  0.20872251186E-01 -0.30400431186E-01 -0.62369143554E-01  0.72456940831E-01  0.51100000000E-03 0.  1.
         11    1    4    4    0    0  0.23267585916E-01 -0.78933314805E-02 -0.49518325593E-01  0.55281198673E-01  0.51100000000E-03 0. -1.
</event>
<event>
 8    1  0.1166736E+005  0.1043930E+01  0.7957747E-01            NaN
         13   -1    0    0    0    0  0.00000000000E+00  0.00000000000E+00  0.74505805969E-08  0.10566000000E+00  0.10566000000E+00 0.  1.
     999900   -1    0    0    0    0 -0.00000000000E+00 -0.00000000000E+00 -0.74505805969E-08  0.93827000000E+00  0.93827000000E+00 0. -1.
     999902    2    1    2    0    0  0.98937545495E-02  0.15033221493E-01 -0.17224190041E-01  0.10190190215E+01  0.10187144886E+01 0.  0.
     999903    2    3    3    0    0  0.11071776869E+00 -0.56348114867E-01  0.29088929639E-01  0.12918438401E+00  0.20221396881E-01 0.  0.
         14    1    1    2    0    0 -0.98937545495E-02 -0.15033221493E-01  0.17224190041E-01  0.24910978506E-01  0.00000000000E+00 0.  1.
     999901    1    3    3    0    0 -0.10082401414E+00  0.71381336359E-01 -0.46313119680E-01  0.88983463748E+00  0.88000000000E+00 0. -1.
        -11    1    4    4    0    0  0.74014185092E-01 -0.28672569186E-01  0.24043651605E-01  0.82937169726E-01  0.51100000000E-03 0.  1.
         11    1    4    4    0    0  0.36703583600E-01 -0.27675545681E-01  0.50452780338E-02  0.46247214287E-01  0.51100000000E-03 0. -1.
</event>
<event>
 8    1  0.1166736E+005  0.1043930E+01  0.7957747E-01            NaN
         13   -1    0    0    0    0  0.00000000000E+00  0.00000000000E+00  0.74505805969E-08  0.10566000000E+00  0.10566000000E+00 0. -1.
     999900   -1    0    0    0    0 -0.00000000000E+00 -0.00000000000E+00 -0.74505805969E-08  0.93827000000E+00  0.93827000000E+00 0. -1.
     999902    2    1    2    0    0  0.14367787129E-01 -0.62275486152E-02 -0.17022644050E-01  0.10208002339E+01  0.10205381578E+01 0.  0.
     999903    2    3    3    0    0 -0.41967589149E-01 -0.44125939522E-01 -0.11628410979E+00  0.13262074685E+00  0.18918013355E-01 0.  0.
         14    1    1    2    0    0 -0.14367787129E-01  0.62275486152E-02  0.17022644050E-01  0.23129766086E-01  0.00000000000E+00 0. -1.
     999901    1    3    3    0    0  0.56335376278E-01  0.37898390907E-01  0.99261465738E-01  0.88817948706E+00  0.88000000000E+00 0.  1.
        -11    1    4    4    0    0 -0.18961826844E-01 -0.16725732626E-01 -0.30161402477E-01  0.39360796860E-01  0.51100000000E-03 0. -1.
         11    1    4    4    0    0 -0.23005762305E-01 -0.27400206896E-01 -0.86122707312E-01  0.93259949994E-01  0.51100000000E-03 0.  1.
</event>
<event>
 8    1  0.1166736E+005  0.1043930E+01  0.7957747E-01            NaN
         13   -1    0    0    0    0  0.00000000000E+00  0.00000000000E+00  0.74505805969E-08  0.10566000000E+00  0.10566000000E+00 0. -1.
     999900   -1    0    0    0    0 -0.00000000000E+00 -0.00000000000E+00 -0.74505805969E-08  0.93827000000E+00  0.93827000000E+00 0. -1.
     999902    2    1    2    0    0 -0.21681989431E-02 -0.55467132216E-02  0.20279485321E-01  0.10227941386E+01  0.10225757308E+01 0.  0.
     999903    2    3    3    0    0 -0.51713222046E-01  0.11301684888E+00  0.42988717042E-01  0.13317189469E+00  0.20968029848E-01 0.  0.
         14    1    1    2    0    0  0.21681989431E-02  0.55467132216E-02 -0.20279485321E-01  0.21135861447E-01  0.00000000000E+00 0.  1.
     999901    1    3    3    0    0  0.49545023103E-01 -0.11856356211E+00 -0.22709231721E-01  0.88962224386E+00  0.88000000000E+00 0. -1.
        -11    1    4    4    0    0 -0.18556899765E-01  0.63413909935E-01  0.27178273943E-01  0.71446498848E-01  0.51100000000E-03 0. -1.
         11    1    4    4    0    0 -0.33156322280E-01  0.49602938949E-01  0.15810443099E-01  0.61725395840E-01  0.51100000000E-03 0.  1.
</event>
<event>
 8    1  0.1166736E+005  0.1043930E+01  0.7957747E-01            NaN
         13   -1    0    0    0    0  0.00000000000E+00  0.00000000000E+00  0.74505805969E-08  0.10566000000E+00  0.10566000000E+00 0. -1.
     999900   -1    0    0    0    0 -0.00000000000E+00 -0.00000000000E+00 -0.74505805969E-08  0.93827000000E+00  0.93827000000E+00 0.  1.
     999902    2    1    2    0    0  0.21317844371E-01 -0.87591542346E-02  0.10261480384E-01  0.10187016181E+01  0.10183891769E+01 0.  0.
     999903    2    3    3    0    0 -0.76261825890E-01 -0.99132766342E-01 -0.19780606869E-01  0.12820079904E+00  0.20025009758E-01 0.  0.
         14    1    1    2    0    0 -0.21317844371E-01  0.87591542346E-02 -0.10261480384E-01  0.25228381858E-01  0.00000000000E+00 0.  1.
     999901    1    3    3    0    0  0.97579670261E-01  0.90373612107E-01  0.30042087253E-01  0.89050081910E+00  0.88000000000E+00 0. -1.
        -11    1    4    4    0    0 -0.60204507224E-01 -0.71369657767E-01 -0.22386291613E-01  0.96018841448E-01  0.51100000000E-03 0. -1.
         11    1    4    4    0    0 -0.16057318666E-01 -0.27763108575E-01  0.26056847441E-02  0.32181957592E-01  0.51100000000E-03 0.  1.
</event>
<event>
 8    1  0.1166736E+005  0.1043930E+01  0.7957747E-01            NaN
         13   -1    0    0    0    0  0.00000000000E+00  0.00000000000E+00  0.74505805969E-08  0.10566000000E+00  0.10566000000E+00 0. -1.
     999900   -1    0    0    0    0 -0.00000000000E+00 -0.00000000000E+00 -0.74505805969E-08  0.93827000000E+00  0.93827000000E+00 0.  1.
     999902    2    1    2    0    0  0.99468866236E-03  0.19135064396E-01 -0.11178201711E-01  0.10217468467E+01  0.10215060091E+01 0.  0.
     999903    2    3    3    0    0  0.12933120547E+00 -0.53228200008E-02  0.14430781728E-01  0.13173321219E+00  0.19761037703E-01 0.  0.
         14    1    1    2    0    0 -0.99468866236E-03 -0.19135064396E-01  0.11178201711E-01  0.22183153258E-01  0.00000000000E+00 0.  1.
     999901    1    3    3    0    0 -0.12833651681E+00  0.24457884397E-01 -0.25608983440E-01  0.89001363455E+00  0.88000000000E+00 0.  1.
        -11    1    4    4    0    0  0.85747514712E-01 -0.45148559047E-02  0.17714901265E-03  0.85867995818E-01  0.51100000000E-03 0. -1.
         11    1    4    4    0    0  0.43583690759E-01 -0.80796409610E-03  0.14253632716E-01  0.45865216371E-01  0.51100000000E-03 0.  1.
</event>
<event>
 8    1  0.1166736E+005  0.1043930E+01  0.7957747E-01            NaN
         13   -1    0    0    0    0  0.00000000000E+00  0.00000000000E+00  0.74505805969E-08  0.10566000000E+00  0.10566000000E+00 0. -1.
     999900   -1    0    0    0    0 -0.00000000000E+00 -0.00000000000E+00 -0.74505805969E-08  0.93827000000E+00  0.93827000000E+00 0. -1.
     999902    2    1    2    0    0  0.17626683941E-01  0.11872384665E-01 -0.11234000886E-01  0.10198913586E+01  0.10196080262E+01 0.  0.
     999903    2    3    3    0    0  0.82509407960E-01  0.83727284893E-01 -0.60146954212E-01  0.13323168795E+00  0.17747279637E-01 0.  0.
         14    1    1    2    0    0 -0.17626683941E-01 -0.11872384665E-01  0.11234000886E-01  0.24038641399E-01  0.00000000000E+00 0. -1.
     999901    1    3    3    0    0 -0.64882724019E-01 -0.71854900228E-01  0.48912953326E-01  0.88665967066E+00  0.88000000000E+00 0.  1.
        -11    1    4    4    0    0  0.81196050469E-02  0.15111277024E-01 -0.13291756923E-01  0.21707385898E-01  0.51100000000E-03 0.  1.
         11    1    4    4    0    0  0.74389802913E-01  0.68616007869E-01 -0.46855197289E-01  0.11152430205E+00  0.51100000000E-03 0. -1.
</event>
<event>
 8    1  0.1166736E+005  0.1043930E+01  0.7957747E-01            NaN
         13   -1    0    0    0    0  0.00000000000E+00  0.00000000000E+00  0.74505805969E-08  0.10566000000E+00  0.10566000000E+00 0.  1.
     999900   -1    0    0    0    0 -0.00000000000E+00 -0.00000000000E+00 -0.74505805969E-08  0.93827000000E+00  0.93827000000E+00 0.  1.
     999902    2    1    2    0    0  0.12153685372E-01  0.20304774236E-01  0.40311973126E-02  0.10199248656E+01  0.10196423319E+01 0.  0.
     999903    2    3    3    0    0  0.10641571291E+00  0.25978022684E-01 -0.70240994674E-01  0.13176166322E+00  0.20692436923E-01 0.  0.
         14    1    1    2    0    0 -0.12153685372E-01 -0.20304774236E-01 -0.40311973126E-02  0.24005134382E-01  0.00000000000E+00 0.  1.
     999901    1    3    3    0    0 -0.94262027539E-01 -0.56732484482E-02  0.74272191987E-01  0.88816320239E+00  0.88000000000E+00 0. -1.
        -11    1    4    4    0    0  0.91067829211E-01  0.24133420832E-01 -0.51186026579E-01  0.10721959689E+00  0.51100000000E-03 0. -1.
         11    1    4    4    0    0  0.15347883700E-01  0.18446018520E-02 -0.19054968096E-01  0.24542066339E-01  0.51100000000E-03 0.  1.
</event>
<event>
 8    1  0.1166736E+005  0.1043930E+01  0.7957747E-01            NaN
         13   -1    0    0    0    0  0.00000000000E+00  0.00000000000E+00  0.74505805969E-08  0.10566000000E+00  0.10566000000E+00 0. -1.
     999900   -1    0    0    0    0 -0.00000000000E+00 -0.00000000000E+00 -0.74505805969E-08  0.93827000000E+00  0.93827000000E+00 0. -1.
     999902    2    1    2    0    0 -0.22440983297E-01 -0.34503435214E-02 -0.15629686009E-02  0.10211715846E+01  0.10209179495E+01 0.  0.
     999903    2    3    3    0    0  0.16216189533E-01 -0.62071816576E-01  0.11212262109E+00  0.13108435996E+00  0.22265490135E-01 0.  0.
         14    1    1    2    0    0  0.22440983297E-01  0.34503435214E-02  0.15629686009E-02  0.22758415423E-01  0.00000000000E+00 0.  1.
     999901    1    3    3    0    0 -0.38657172829E-01  0.58621473055E-01 -0.11368558969E+00  0.89008722461E+00  0.88000000000E+00 0. -1.
        -11    1    4    4    0    0  0.20255446028E-01 -0.53980020798E-01  0.86933266705E-01  0.10431576928E+00  0.51100000000E-03 0.  1.
         11    1    4    4    0    0 -0.40392564947E-02 -0.80917957786E-02  0.25189354386E-01  0.26768590686E-01  0.51100000000E-03 0. -1.
</event>
<event>
 8    1  0.1166736E+005  0.1043930E+01  0.7957747E-01            NaN
         13   -1    0    0    0    0  0.00000000000E+00  0.00000000000E+00  0.74505805969E-08  0.10566000000E+00  0.10566000000E+00 0.  1.
     999900   -1    0    0    0    0 -0.00000000000E+00 -0.00000000000E+00 -0.74505805969E-08  0.93827000000E+00  0.93827000000E+00 0. -1.
     999902    2    1    2    0    0 -0.53606275525E-02  0.98307499267E-03  0.22580331961E-01  0.10207012644E+01  0.10204369148E+01 0.  0.
     999903    2    3    3    0    0  0.39472977891E-01 -0.57782448033E-01  0.11176923592E+00  0.13311008633E+00  0.18138514295E-01 0.  0.
         14    1    1    2    0    0  0.53606275525E-02 -0.98307499267E-03 -0.22580331961E-01  0.23228735559E-01  0.00000000000E+00 0. -1.
     999901    1    3    3    0    0 -0.44833605444E-01  0.58765523026E-01 -0.89188903956E-01  0.88759117811E+00  0.88000000000E+00 0. -1.
        -11    1    4    4    0    0  0.26035056257E-01 -0.28066238841E-01  0.47245339790E-01  0.60810535023E-01  0.51100000000E-03 0.  1.
         11    1    4    4    0    0  0.13437921634E-01 -0.29716209192E-01  0.64523896127E-01  0.72299551306E-01  0.51100000000E-03 0. -1.
</event>
<event>
 8    1  0.1166736E+005  0.1043930E+01  0.7957747E-01            NaN
         13   -1    0    0    0    0  0.00000000000E+00  0.00000000000E+00  0.74505805969E-08  0.10566000000E+00  0.10566000000E+00 0. -1.
     999900   -1    0    0    0    0 -0.00000000000E+00 -0.00000000000E+00 -0.74505805969E-08  0.93827000000E+00  0.93827000000E+00 0. -1.
     999902    2    1    2    0    0  0.37230670873E-02 -0.11015930399E-01  0.21252608669E-01  0.10197042838E+01  0.10194164708E+01 0.  0.
     999903    2    3    3    0    0  0.42943616447E-01  0.11996058226E+00  0.64608873290E-02  0.12902370502E+00  0.19252997229E-01 0.  0.
         14    1    1    2    0    0 -0.37230670873E-02  0.11015930399E-01 -0.21252608669E-01  0.24225716219E-01  0.00000000000E+00 0.  1.
     999901    1    3    3    0    0 -0.39220549360E-01 -0.13097651266E+00  0.14791721340E-01  0.89068057876E+00  0.88000000000E+00 0.  1.
        -11    1    4    4    0    0  0.26305038377E-01  0.86779815166E-01 -0.29450076650E-02  0.90728306252E-01  0.51100000000E-03 0.  1.
         11    1    4    4    0    0  0.16638578070E-01  0.33180767094E-01  0.94058949940E-02  0.38295398768E-01  0.51100000000E-03 0. -1.
</event>
<event>
 8    1  0.1166736E+005  0.1043930E+01  0.7957747E-01            NaN
         13   -1    0    0    0    0  0.00000000000E+00  0.00000000000E+00  0.74505805969E-08  0.10566000000E+00  0.10566000000E+00 0. -1.
     999900   -1    0    0    0    0 -0.00000000000E+00 -0.00000000000E+00 -0.74505805969E-08  0.93827000000E+00  0.93827000000E+00 0.  1.
     999902    2    1    2    0    0  0.95609851262E-02  0.11116169451E-01  0.19136214132E-01  0.10198224006E+01  0.10195374208E+01 0.  0.
     999903    2    3    3    0    0 -0.11852622004E+00  0.18029322057E-01  0.46511759247E-01  0.13010135198E+00  0.19735671935E-01 0.  0.
         14    1    1    2    0    0 -0.95609851262E-02 -0.11116169451E-01 -0.19136214132E-01  0.24107599448E-01  0.00000000000E+00 0.  1.
     999901    1    3    3    0    0  0.12808720517E+00 -0.69131526060E-02 -0.27375545115E-01  0.88972104857E+00  0.88000000000E+00 0.  1.
        -11    1    4    4    0    0 -0.58983886574E-01  0.10451983108E-01  0.33668282448E-01  0.68717953915E-01  0.51100000000E-03 0. -1.
         11    1    4    4    0    0 -0.59542333468E-01  0.75773389485E-02  0.12843476799E-01  0.61383398062E-01  0.51100000000E-03 0.  1.
</event>
<event>
 8    1  0.1166736E+005  0.1043930E+01  0.7957747E-01            NaN
         13   -1    0    0    0    0  0.00000000000E+00  0.00000000000E+00  0.74505805969E-08  0.10566000000E+00  0.10566000000E+00 0. -1.
     999900   -1    0    0    0    0 -0.00000000000E+00 -0.00000000000E+00 -0.74505805969E-08  0.93827000000E+00  0.93827000000E+00 0.  1.
     999902    2    1    2    0    0  0.80017735769E-02  0.66919665216E-02 -0.22589630332E-01  0.10190482357E+01  0.10187444255E+01 0.  0.
     999903    2    3    3    0    0  0.11418196772E-02 -0.49456735844E-01 -0.12074855434E+00  0.13178564204E+00  0.18438264562E-01 0.  0.
         14    1    1    2    0    0 -0.80017735769E-02 -0.66919665216E-02  0.22589630332E-01  0.24881764303E-01  0.00000000000E+00 0.  1.
     999901    1    3    3    0    0  0.68599538997E-02  0.56148702366E-01  0.98158924006E-01  0.88726259366E+00  0.88000000000E+00 0. -1.
        -11    1    4    4    0    0  0.81998511544E-02 -0.20351534412E-01 -0.63308713614E-01  0.67005050947E-01  0.51100000000E-03 0. -1.
         11    1    4    4    0    0 -0.70580314772E-02 -0.29105201432E-01 -0.57439840724E-01  0.64780591091E-01  0.51100000000E-03 0.  1.
</event>
<event>
 8    1  0.1166736E+005  0.1043930E+01  0.7957747E-01            NaN
         13   -1    0    0    0    0  0.00000000000E+00  0.00000000000E+00  0.74505805969E-08  0.10566000000E+00  0.10566000000E+00 0.  1.
     999900   -1    0    0    0    0 -0.00000000000E+00 -0.00000000000E+00 -0.74505805969E-08  0.93827000000E+00  0.93827000000E+00 0.  1.
     999902    2    1    2    0    0 -0.19275389518E-01 -0.12134064187E-01  0.63629952796E-02  0.10202812397E+01  0.10200071295E+01 0.  0.
     999903    2    3    3    0    0 -0.95178154181E-01  0.74936866070E-01 -0.45194866944E-01  0.13123636472E+00  0.22494276962E-01 0.  0.
         14    1    1    2    0    0  0.19275389518E-01  0.12134064187E-01 -0.63629952796E-02  0.23648760299E-01  0.00000000000E+00 0. -1.
     999901    1    3    3    0    0  0.75902764663E-01 -0.87070930257E-01  0.51557862223E-01  0.88904487498E+00  0.88000000000E+00 0.  1.
        -11    1    4    4    0    0 -0.67499864565E-01  0.41850234620E-01 -0.35630674799E-01  0.87048721769E-01  0.51100000000E-03 0. -1.
         11    1    4    4    0    0 -0.27678289617E-01  0.33086631451E-01 -0.95641921450E-02  0.44187642947E-01  0.51100000000E-03 0.  1.
</event>
<event>
 8    1  0.1166736E+005  0.1043930E+01  0.7957747E-01            NaN
         13   -1    0    0    0    0  0.00000000000E+00  0.00000000000E+00  0.74505805969E-08  0.10566000000E+00  0.10566000000E+00 0.  1.
     999900   -1    0    0    0    0 -0.00000000000E+00 -0.00000000000E+00 -0.74505805969E-08  0.93827000000E+00  0.93827000000E+00 0.  1.
     999902    2    1    2    0    0  0.11822204597E-01  0.65428203451E-02  0.20838109452E-01  0.10190945450E+01  0.10187918786E+01 0.  0.
     999903    2    3    3    0    0  0.67561501627E-01  0.10121128157E+00 -0.41951214600E-01  0.13004365444E+00  0.18524784362E-01 0.  0.
         14    1    1    2    0    0 -0.11822204597E-01 -0.65428203451E-02 -0.20838109452E-01  0.24835455002E-01  0.00000000000E+00 0.  1.
     999901    1    3    3    0    0 -0.55739297030E-01 -0.94668461223E-01  0.62789324052E-01  0.88905089056E+00  0.88000000000E+00 0. -1.
        -11    1    4    4    0    0  0.49871804382E-01  0.66386397138E-01 -0.20705859649E-01  0.85576540840E-01  0.51100000000E-03 0.  1.
         11    1    4    4    0    0  0.17689697245E-01  0.34824884430E-01 -0.21245354951E-01  0.44467113603E-01  0.51100000000E-03 0. -1.
</event>
<event>
 8    1  0.1166736E+005  0.1043930E+01  0.7957747E-01            NaN
         13   -1    0    0    0    0  0.00000000000E+00  0.00000000000E+00  0.74505805969E-08  0.10566000000E+00  0.10566000000E+00 0.  1.
     999900   -1    0    0    0    0 -0.00000000000E+00 -0.00000000000E+00 -0.74505805969E-08  0.93827000000E+00  0.93827000000E+00 0. -1.
     999902    2    1    2    0    0  0.27494393912E-02 -0.15553760623E-01  0.17326460276E-01  0.10204846356E+01  0.10202152745E+01 0.  0.
     999903    2    3    3    0    0  0.11298153038E+00  0.41978056874E-01 -0.42246199999E-01  0.12974902624E+00  0.22871050060E-01 0.  0.
         14    1    1    2    0    0 -0.27494393912E-02  0.15553760623E-01 -0.17326460276E-01  0.23445364407E-01  0.00000000000E+00 0. -1.
     999901    1    3    3    0    0 -0.11023209099E+00 -0.57531817497E-01  0.59572660275E-01  0.89073560935E+00  0.88000000000E+00 0.  1.
        -11    1    4    4    0    0  0.67322870058E-01  0.18230739261E-01 -0.34106595982E-01  0.77641803800E-01  0.51100000000E-03 0.  1.
         11    1    4    4    0    0  0.45658660323E-01  0.23747317613E-01 -0.81396040171E-02  0.52107222444E-01  0.51100000000E-03 0. -1.
</event>
<event>
 8    1  0.1166736E+005  0.1043930E+01  0.7957747E-01            NaN
         13   -1    0    0    0    0  0.00000000000E+00  0.00000000000E+00  0.74505805969E-08  0.10566000000E+00  0.10566000000E+00 0.  1.
     999900   -1    0    0    0    0 -0.00000000000E+00 -0.00000000000E+00 -0.74505805969E-08  0.93827000000E+00  0.93827000000E+00 0.  1.
     999902    2    1    2    0    0  0.11087489610E-01 -0.40208311599E-02  0.18023411957E-01  0.10223906665E+01  0.10221637501E+01 0.  0.
     999903    2    3    3    0    0  0.65721684756E-01 -0.24321636749E-01  0.11396670141E+00  0.13525925979E+00  0.19894131461E-01 0.  0.
         14    1    1    2    0    0 -0.11087489610E-01  0.40208311599E-02 -0.18023411957E-01  0.21539333500E-01  0.00000000000E+00 0. -1.
     999901    1    3    3    0    0 -0.54634195146E-01  0.20300805589E-01 -0.95943289452E-01  0.88713140671E+00  0.88000000000E+00 0.  1.
        -11    1    4    4    0    0  0.19513897483E-01 -0.20741739107E-03  0.20964100714E-01  0.28645939620E-01  0.51100000000E-03 0.  1.
         11    1    4    4    0    0  0.46207787272E-01 -0.24114219357E-01  0.93002600695E-01  0.10661332017E+00  0.51100000000E-03 0. -1.
</event>
<event>
 8    1  0.1166736E+005  0.1043930E+01  0.7957747E-01            NaN
         13   -1    0    0    0    0  0.00000000000E+00  0.00000000000E+00  0.74505805969E-08  0.10566000000E+00  0.10566000000E+00 0.  1.
     999900   -1    0    0    0    0 -0.00000000000E+00 -0.00000000000E+00 -0.74505805969E-08  0.93827000000E+00  0.93827000000E+00 0. -1.
     999902    2    1    2    0    0  0.47049708468E-02 -0.23107459439E-01  0.58108143031E-02  0.10196430283E+01  0.10193537404E+01 0.  0.
     999903    2    3    3    0    0  0.17774164888E-03  0.76352036380E-01 -0.10040835556E+00  0.12768159461E+00  0.19775911700E-01 0.  0.
         14    1    1    2    0    0 -0.47049708468E-02  0.23107459439E-01 -0.58108143031E-02  0.24286971719E-01  0.00000000000E+00 0.  1.
     999901    1    3    3    0    0  0.45272291979E-02 -0.99459495820E-01  0.10621916986E+00  0.89196143367E+00  0.88000000000E+00 0.  1.
        -11    1    4    4    0    0  0.15976645493E-02  0.59013575510E-01 -0.62532065920E-01  0.85998110535E-01  0.51100000000E-03 0. -1.
         11    1    4    4    0    0 -0.14199229005E-02  0.17338460870E-01 -0.37876289642E-01  0.41683484073E-01  0.51100000000E-03 0.  1.
</event>
<event>
 8    1  0.1166736E+005  0.1043930E+01  0.7957747E-01            NaN
         13   -1    0    0    0    0  0.00000000000E+00  0.00000000000E+00  0.74505805969E-08  0.10566000000E+00  0.10566000000E+00 0. -1.
     999900   -1    0    0    0    0 -0.00000000000E+00 -0.00000000000E+00 -0.74505805969E-08  0.93827000000E+00  0.93827000000E+00 0. -1.
     999902    2    1    2    0    0  0.65333479964E-02  0.22457545974E-01  0.43817048724E-02  0.10201345100E+01  0.10198569474E+01 0.  0.
     999903    2    3    3    0    0  0.10861151840E+00  0.58763763942E-01 -0.42732475450E-01  0.13223933582E+00  0.20286340185E-01 0.  0.
         14    1    1    2    0    0 -0.65333479964E-02 -0.22457545974E-01 -0.43817048724E-02  0.23795490009E-01  0.00000000000E+00 0.  1.
     999901    1    3    3    0    0 -0.10207817040E+00 -0.36306217968E-01  0.47114180322E-01  0.88789517417E+00  0.88000000000E+00 0. -1.
        -11    1    4    4    0    0  0.30882059451E-01  0.12017877938E-01 -0.32060962363E-02  0.33296713955E-01  0.51100000000E-03 0.  1.
         11    1    4    4    0    0  0.77729458944E-01  0.46745886004E-01 -0.39526379214E-01  0.98942621861E-01  0.51100000000E-03 0. -1.
</event>
<event>
 8    1  0.1166736E+005  0.1043930E+01  0.7957747E-01            NaN
         13   -1    0    0    0    0  0.00000000000E+00  0.00000000000E+00  0.74505805969E-08  0.10566000000E+00  0.10566000000E+00 0.  1.
     999900   -1    0    0    0    0 -0.00000000000E+00 -0.00000000000E+00 -0.74505805969E-08  0.93827000000E+00  0.93827000000E+00 0. -1.
     999902    2    1    2    0    0  0.21583157344E-01 -0.10223181286E-01  0.60719571627E-02  0.10192882716E+01  0.10189903659E+01 0.  0.
     999903    2    3    3    0    0  0.40732814131E-01 -0.11227525674E+00 -0.50741573282E-01  0.13136422487E+00  0.20419522372E-01 0.  0.
         14    1    1    2    0    0 -0.21583157344E-01  0.10223181286E-01 -0.60719571627E-02  0.24641728437E-01  0.00000000000E+00 0. -1.
     999901    1    3    3    0    0 -0.19149656786E-01  0.10205207545E+00  0.56813530445E-01  0.88792404670E+00  0.88000000000E+00 0.  1.
        -11    1    4    4    0    0  0.27901944612E-01 -0.54394661895E-01 -0.33027842099E-01  0.69486669445E-01  0.51100000000E-03 0.  1.
         11    1    4    4    0    0  0.12830869519E-01 -0.57880594840E-01 -0.17713731183E-01  0.61877555423E-01  0.51100000000E-03 0. -1.
</event>
<event>
 8    1  0.1166736E+005  0.1043930E+01  0.7957747E-01            NaN
         13   -1    0    0    0    0  0.00000000000E+00  0.00000000000E+00  0.74505805969E-08  0.10566000000E+00  0.10566000000E+00 0. -1.
     999900   -1    0    0    0    0 -0.00000000000E+00 -0.00000000000E+00 -0.74505805969E-08  0.93827000000E+00  0.93827000000E+00 0.  1.
     999902    2    1    2    0    0  0.17478771672E-01  0.14031279442E-01 -0.70662689440E-02  0.10204285869E+01  0.10201579214E+01 0.  0.
     999903    2    3    3    0    0 -0.19692606992E-01  0.12690967487E+00 -0.22612755034E-01  0.13230419425E+00  0.22342756772E-01 0.  0.
         14    1    1    2    0    0 -0.17478771672E-01 -0.14031279442E-01  0.70662689440E-02  0.23501413122E-01  0.00000000000E+00 0. -1.
     999901    1    3    3    0    0  0.37171378663E-01 -0.11287839543E+00  0.15546486090E-01  0.88812439263E+00  0.88000000000E+00 0.  1.
        -11    1    4    4    0    0 -0.12569570616E-01  0.11139593681E+00 -0.25540330710E-01  0.11497659960E+00  0.51100000000E-03 0.  1.
         11    1    4    4    0    0 -0.71230363756E-02  0.15513738066E-01  0.29275756766E-02  0.17327594650E-01  0.51100000000E-03 0. -1.
</event>
<event>
 8    1  0.1166736E+005  0.1043930E+01  0.7957747E-01            NaN
         13   -1    0    0    0    0  0.00000000000E+00  0.00000000000E+00  0.74505805969E-08  0.10566000000E+00  0.10566000000E+00 0.  1.
     999900   -1    0    0    0    0 -0.00000000000E+00 -0.00000000000E+00 -0.74505805969E-08  0.93827000000E+00  0.93827000000E+00 0.  1.
     999902    2    1    2    0    0 -0.40859533065E-02  0.18280012801E-01 -0.16597474552E-01  0.10189034133E+01  0.10185960119E+01 0.  0.
     999903    2    3    3    0    0 -0.10303619394E+00  0.19718221714E-01 -0.76627331216E-01  0.13132423242E+00  0.19210429546E-01 0.  0.
         14    1    1    2    0    0  0.40859533065E-02 -0.18280012801E-01  0.16597474552E-01  0.25026586741E-01  0.00000000000E+00 0.  1.
     999901    1    3    3    0    0  0.98950240629E-01 -0.14382089127E-02  0.60029856664E-01  0.88757918084E+00  0.88000000000E+00 0. -1.
        -11    1    4    4    0    0 -0.61952006429E-01  0.13366769784E-01 -0.34607334403E-01  0.72212535965E-01  0.51100000000E-03 0. -1.
         11    1    4    4    0    0 -0.41084187507E-01  0.63514519299E-02 -0.42019996813E-01  0.59111696456E-01  0.51100000000E-03 0.  1.
</event>
<event>
 8    1  0.1166736E+005  0.1043930E+01  0.7957747E-01            NaN
         13   -1    0    0    0    0  0.00000000000E+00  0.00000000000E+00  0.74505805969E-08  0.10566000000E+00  0.10566000000E+00 0. -1.
     999900   -1    0    0    0    0 -0.00000000000E+00 -0.00000000000E+00 -0.74505805969E-08  0.93827000000E+00  0.93827000000E+00 0.  1.
     999902    2    1    2    0    0  0.61690418847E-02 -0.16866336527E-01 -0.15100448651E-01  0.10204661142E+01  0.10201963225E+01 0.  0.
     999903    2    3    3    0    0  0.86055432001E-01 -0.98933413744E-01 -0.12323498705E-01  0.13304031343E+00  0.18828134405E-01 0.  0.
         14    1    1    2    0    0 -0.61690418847E-02  0.16866336527E-01  0.15100448651E-01  0.23463885762E-01  0.00000000000E+00 0. -1.
     999901    1    3    3    0    0 -0.79886390117E-01  0.82067077217E-01 -0.27769499455E-02  0.88742580081E+00  0.88000000000E+00 0. -1.
        -11    1    4    4    0    0  0.29535186776E-01 -0.44979880101E-01  0.73338157598E-03  0.53817430646E-01  0.51100000000E-03 0.  1.
         11    1    4    4    0    0  0.56520245225E-01 -0.53953533643E-01 -0.13056880281E-01  0.79222882784E-01  0.51100000000E-03 0. -1.
</event>
<event>
 8    1  0.1166736E+005  0.1043930E+01  0.7957747E-01            NaN
         13   -1    0    0    0    0  0.00000000000E+00  0.00000000000E+00  0.74505805969E-08  0.10566000000E+00  0.10566000000E+00 0. -1.
     999900   -1    0    0    0    0 -0.00000000000E+00 -0.00000000000E+00 -0.74505805969E-08  0.93827000000E+00  0.93827000000E+00 0. -1.
     999902    2    1    2    0    0  0.22378004743E-01  0.66756319437E-02  0.68836293558E-02  0.10195840864E+01  0.10192933756E+01 0.  0.
     999903    2    3    3    0    0 -0.66195501340E-01  0.10555196546E+00  0.28751917616E-01  0.12935938588E+00  0.19598881003E-01 0.  0.
         14    1    1    2    0    0 -0.22378004743E-01 -0.66756319437E-02 -0.68836293558E-02  0.24345913645E-01  0.00000000000E+00 0. -1.
     999901    1    3    3    0    0  0.88573506083E-01 -0.98876333521E-01 -0.21868288260E-01  0.89022470048E+00  0.88000000000E+00 0.  1.
        -11    1    4    4    0    0 -0.54498209080E-01  0.74272222036E-01  0.26620076144E-01  0.95892165134E-01  0.51100000000E-03 0. -1.
         11    1    4    4    0    0 -0.11697292260E-01  0.31279743428E-01  0.21318414716E-02  0.33467220743E-01  0.51100000000E-03 0.  1.
</event>
<event>
 8    1  0.1223880E+005  0.1043930E+01  0.7957747E-01            NaN
         13   -1    0    0    0    0  0.00000000000E+00  0.00000000000E+00  0.74505805969E-08  0.10566000000E+00  0.10566000000E+00 0. -1.
     999900   -1    0    0    0    0 -0.00000000000E+00 -0.00000000000E+00 -0.74505805969E-08  0.93827000000E+00  0.93827000000E+00 0.  1.
     999902    2    1    2    0    0  0.12812032900E-01 -0.19981341118E-01 -0.13901428515E-02  0.10201532324E+01  0.10198761116E+01 0.  0.
     999903    2    3    3    0    0 -0.62831721215E-01 -0.89306342133E-01 -0.70593728696E-01  0.13149296572E+00  0.19582583238E-01 0.  0.
         14    1    1    2    0    0 -0.12812032900E-01  0.19981341118E-01  0.13901428515E-02  0.23776767590E-01  0.00000000000E+00 0. -1.
     999901    1    3    3    0    0  0.75643754114E-01  0.69325001016E-01  0.69203585845E-01  0.88866026669E+00  0.88000000000E+00 0. -1.
        -11    1    4    4    0    0 -0.50499446517E-01 -0.58511932890E-01 -0.43736917343E-01  0.88808892847E-01  0.51100000000E-03 0.  1.
         11    1    4    4    0    0 -0.12332274698E-01 -0.30794409243E-01 -0.26856811353E-01  0.42684072872E-01  0.51100000000E-03 0. -1.
</event>
<event>
 8    1  0.1166736E+005  0.1043930E+01  0.7957747E-01            NaN
         13   -1    0    0    0    0  0.00000000000E+00  0.00000000000E+00  0.74505805969E-08  0.10566000000E+00  0.10566000000E+00 0. -1.
     999900   -1    0    0    0    0 -0.00000000000E+00 -0.00000000000E+00 -0.74505805969E-08  0.93827000000E+00  0.93827000000E+00 0. -1.
     999902    2    1    2    0    0  0.14535136232E-01  0.95834848972E-02  0.15548319166E-01  0.10205876866E+01  0.10203207154E+01 0.  0.
     999903    2    3    3    0    0 -0.69466883887E-01  0.10308507441E+00 -0.33986415407E-01  0.13027730441E+00  0.19102855524E-01 0.  0.
         14    1    1    2    0    0 -0.14535136232E-01 -0.95834848972E-02 -0.15548319166E-01  0.23342313445E-01  0.00000000000E+00 0.  1.
     999901    1    3    3    0    0  0.84002020119E-01 -0.93501589513E-01  0.49534734573E-01  0.89031038214E+00  0.88000000000E+00 0. -1.
        -11    1    4    4    0    0 -0.30733094579E-01  0.50647193896E-01 -0.67703230236E-02  0.59630191571E-01  0.51100000000E-03 0.  1.
         11    1    4    4    0    0 -0.38733789308E-01  0.52437880514E-01 -0.27216092383E-01  0.70647112840E-01  0.51100000000E-03 0. -1.
</event>
<event>
 8    1  0.1166736E+005  0.1043930E+01  0.7957747E-01            NaN
         13   -1    0    0    0    0  0.00000000000E+00  0.00000000000E+00  0.74505805969E-08  0.10566000000E+00  0.10566000000E+00 0.  1.
     999900   -1    0    0    0    0 -0.00000000000E+00 -0.00000000000E+00 -0.74505805969E-08  0.93827000000E+00  0.93827000000E+00 0. -1.
     999902    2    1    2    0    0  0.57863236927E-02 -0.20047477463E-01 -0.80753549626E-02  0.10215560363E+01  0.10213109913E+01 0.  0.
     999903    2    3    3    0    0  0.10123638505E-01 -0.36519105414E-01  0.12443866904E+00  0.13147171815E+00  0.19070846999E-01 0.  0.
         14    1    1    2    0    0 -0.57863236927E-02  0.20047477463E-01  0.80753549626E-02  0.22373963714E-01  0.00000000000E+00 0.  1.
     999901    1    3    3    0    0 -0.43373148127E-02  0.16471627951E-01 -0.13251402400E+00  0.89008431813E+00  0.88000000000E+00 0. -1.
        -11    1    4    4    0    0  0.24670536627E-02 -0.27710846350E-01  0.62113640107E-01  0.68061316234E-01  0.51100000000E-03 0. -1.
         11    1    4    4    0    0  0.76565848427E-02 -0.88082590637E-02  0.62325028932E-01  0.63410401919E-01  0.51100000000E-03 0.  1.
</event>
<event>
 8    1  0.1166736E+005  0.1043930E+01  0.7957747E-01            NaN
         13   -1    0    0    0    0  0.00000000000E+00  0.00000000000E+00  0.74505805969E-08  0.10566000000E+00  0.10566000000E+00 0. -1.
     999900   -1    0    0    0    0 -0.00000000000E+00 -0.00000000000E+00 -0.74505805969E-08  0.93827000000E+00  0.93827000000E+00 0. -1.
     999902    2    1    2    0    0  0.49097222792E-02  0.14145179785E-01  0.17795964670E-01  0.10206730044E+01  0.10204080038E+01 0.  0.
     999903    2    3    3    0    0  0.50771374596E-01 -0.25642848635E-01 -0.11270387624E+00  0.12897990318E+00  0.26426568797E-01 0.  0.
         14    1    1    2    0    0 -0.49097222792E-02 -0.14145179785E-01 -0.17795964670E-01  0.23256995562E-01  0.00000000000E+00 0.  1.
     999901    1    3    3    0    0 -0.45861652317E-01  0.39788028420E-01  0.13049984092E+00  0.89169310126E+00  0.88000000000E+00 0.  1.
        -11    1    4    4    0    0  0.40383359380E-01 -0.13268364386E-01 -0.57822571919E-01  0.71767514605E-01  0.51100000000E-03 0.  1.
         11    1    4    4    0    0  0.10388015217E-01 -0.12374484249E-01 -0.54881304326E-01  0.57212388572E-01  0.51100000000E-03 0. -1.
</event>
<event>
 8    1  0.1166736E+005  0.1043930E+01  0.7957747E-01            NaN
         13   -1    0    0    0    0  0.00000000000E+00  0.00000000000E+00  0.74505805969E-08  0.10566000000E+00  0.10566000000E+00 0. -1.
     999900   -1    0    0    0    0 -0.00000000000E+00 -0.00000000000E+00 -0.74505805969E-08  0.93827000000E+00  0.93827000000E+00 0.  1.
     999902    2    1    2    0    0  0.98224992123E-02 -0.41050085720E-02  0.21155850291E-01  0.10202466179E+01  0.10199716951E+01 0.  0.
     999903    2    3    3    0    0  0.54234287179E-01  0.85812611256E-01  0.82825390207E-01  0.13240613819E+00  0.19135778274E-01 0.  0.
         14    1    1    2    0    0 -0.98224992123E-02  0.41050085720E-02 -0.21155850291E-01  0.23683382100E-01  0.00000000000E+00 0.  1.
     999901    1    3    3    0    0 -0.44411787967E-01 -0.89917619827E-01 -0.61669539916E-01  0.88784047971E+00  0.88000000000E+00 0.  1.
        -11    1    4    4    0    0  0.23425141205E-01  0.26008586832E-01  0.19786605984E-01  0.40211375590E-01  0.51100000000E-03 0. -1.
         11    1    4    4    0    0  0.30809145975E-01  0.59804024423E-01  0.63038784223E-01  0.92194762596E-01  0.51100000000E-03 0.  1.
</event>
<event>
 8    1  0.1166736E+005  0.1043930E+01  0.7957747E-01            NaN
         13   -1    0    0    0    0  0.00000000000E+00  0.00000000000E+00  0.74505805969E-08  0.10566000000E+00  0.10566000000E+00 0.  1.
     999900   -1    0    0    0    0 -0.00000000000E+00 -0.00000000000E+00 -0.74505805969E-08  0.93827000000E+00  0.93827000000E+00 0. -1.
     999902    2    1    2    0    0 -0.86474690591E-02 -0.18405616895E-01  0.91108114457E-02  0.10216465456E+01  0.10214035010E+01 0.  0.
     999903    2    3    3    0    0  0.67007300671E-01 -0.77278005713E-01  0.83439127205E-01  0.13332548829E+00  0.18754449325E-01 0.  0.
         14    1    1    2    0    0  0.86474690591E-02  0.18405616895E-01 -0.91108114457E-02  0.22283454391E-01  0.00000000000E+00 0. -1.
     999901    1    3    3    0    0 -0.75654769730E-01  0.58872388819E-01 -0.74328315759E-01  0.88832105732E+00  0.88000000000E+00 0. -1.
        -11    1    4    4    0    0  0.13414457586E-01 -0.23095157975E-01  0.30427152751E-01  0.40489588041E-01  0.51100000000E-03 0.  1.
         11    1    4    4    0    0  0.53592843085E-01 -0.54182847738E-01  0.53011974454E-01  0.92835900252E-01  0.51100000000E-03 0. -1.
</event>
<event>
 8    1  0.1166736E+005  0.1043930E+01  0.7957747E-01            NaN
         13   -1    0    0    0    0  0.00000000000E+00  0.00000000000E+00  0.74505805969E-08  0.10566000000E+00  0.10566000000E+00 0. -1.
     999900   -1    0    0    0    0 -0.00000000000E+00 -0.00000000000E+00 -0.74505805969E-08  0.93827000000E+00  0.93827000000E+00 0. -1.
     999902    2    1    2    0    0  0.14860293005E-02 -0.87979917779E-02 -0.15185415452E-01  0.10263172267E+01  0.10261660879E+01 0.  0.
     999903    2    3    3    0    0 -0.85159664215E-01 -0.10094856828E+00 -0.30764645081E-01  0.13713675153E+00  0.20426536294E-01 0.  0.
         14    1    1    2    0    0 -0.14860293005E-02  0.87979917779E-02  0.15185415452E-01  0.17612773343E-01  0.00000000000E+00 0. -1.
     999901    1    3    3    0    0  0.86645693516E-01  0.92150576505E-01  0.15579229629E-01  0.88918047513E+00  0.88000000000E+00 0.  1.
        -11    1    4    4    0    0 -0.38739864010E-01 -0.35638705159E-01 -0.45862603076E-02  0.52841170252E-01  0.51100000000E-03 0. -1.
         11    1    4    4    0    0 -0.46419800205E-01 -0.65309863124E-01 -0.26178384773E-01  0.84295581276E-01  0.51100000000E-03 0.  1.
</event>
<event>
 8    1  0.1166736E+005  0.1043930E+01  0.7957747E-01            NaN
         13   -1    0    0    0    0  0.00000000000E+00  0.00000000000E+00  0.74505805969E-08  0.10566000000E+00  0.10566000000E+00 0. -1.
     999900   -1    0    0    0    0 -0.00000000000E+00 -0.00000000000E+00 -0.74505805969E-08  0.93827000000E+00  0.93827000000E+00 0. -1.
     999902    2    1    2    0    0 -0.16573580635E-01 -0.10741324453E-01 -0.13111675560E-01  0.10202239741E+01  0.10199485192E+01 0.  0.
     999903    2    3    3    0    0  0.10328787691E+00  0.28466901013E-02 -0.75887504939E-01  0.12977902475E+00  0.20179016284E-01 0.  0.
         14    1    1    2    0    0  0.16573580635E-01  0.10741324453E-01  0.13111675560E-01  0.23706025860E-01  0.00000000000E+00 0. -1.
     999901    1    3    3    0    0 -0.11986145754E+00 -0.13588014554E-01  0.62775829379E-01  0.89044494939E+00  0.88000000000E+00 0.  1.
        -11    1    4    4    0    0  0.12982189117E-01 -0.54341226594E-02 -0.60920831242E-02  0.15344103790E-01  0.51100000000E-03 0.  1.
         11    1    4    4    0    0  0.90305687791E-01  0.82808127607E-02 -0.69795421815E-01  0.11443492096E+00  0.51100000000E-03 0. -1.
</event>
<event>
 8    1  0.1166736E+005  0.1043930E+01  0.7957747E-01            NaN
         13   -1    0    0    0    0  0.00000000000E+00  0.00000000000E+00  0.74505805969E-08  0.10566000000E+00  0.10566000000E+00 0.  1.
     999900   -1    0    0    0    0 -0.00000000000E+00 -0.00000000000E+00 -0.74505805969E-08  0.93827000000E+00  0.93827000000E+00 0. -1.
     999902    2    1    2    0    0  0.26593218725E-02  0.23498579649E-01  0.34337168171E-02  0.10200334385E+01  0.10197534850E+01 0.  0.
     999903    2    3    3    0    0  0.59533207362E-01  0.10713594748E+00 -0.46853911831E-01  0.13281379621E+00  0.20540238284E-01 0.  0.
         14    1    1    2    0    0 -0.26593218725E-02 -0.23498579649E-01 -0.34337168171E-02  0.23896561458E-01  0.00000000000E+00 0. -1.
     999901    1    3    3    0    0 -0.56873885490E-01 -0.83637367828E-01  0.50287628648E-01  0.88721964233E+00  0.88000000000E+00 0.  1.
        -11    1    4    4    0    0  0.32456499446E-01  0.56555124522E-01 -0.13985734206E-01  0.66691591286E-01  0.51100000000E-03 0. -1.
         11    1    4    4    0    0  0.27076707917E-01  0.50580822955E-01 -0.32868177625E-01  0.66122204922E-01  0.51100000000E-03 0.  1.
</event>
<event>
 8    1  0.1166736E+005  0.1043930E+01  0.7957747E-01            NaN
         13   -1    0    0    0    0  0.00000000000E+00  0.00000000000E+00  0.74505805969E-08  0.10566000000E+00  0.10566000000E+00 0.  1.
     999900   -1    0    0    0    0 -0.00000000000E+00 -0.00000000000E+00 -0.74505805969E-08  0.93827000000E+00  0.93827000000E+00 0.  1.
     999902    2    1    2    0    0  0.79899726535E-02  0.14994822686E-01  0.14211148264E-01  0.10217795800E+01  0.10215394603E+01 0.  0.
     999903    2    3    3    0    0 -0.76578958673E-01 -0.69863616972E-01 -0.74483081750E-01  0.12924413234E+00  0.20274476298E-01 0.  0.
         14    1    1    2    0    0 -0.79899726535E-02 -0.14994822686E-01 -0.14211148264E-01  0.22150419982E-01  0.00000000000E+00 0. -1.
     999901    1    3    3    0    0  0.84568931326E-01  0.84858439658E-01  0.88694230015E-01  0.89253544768E+00  0.88000000000E+00 0. -1.
        -11    1    4    4    0    0 -0.52808437963E-01 -0.42524754978E-01 -0.37551832012E-01  0.77507980973E-01  0.51100000000E-03 0.  1.
         11    1    4    4    0    0 -0.23770520710E-01 -0.27338861993E-01 -0.36931249738E-01  0.51736151366E-01  0.51100000000E-03 0. -1.
</event>
<event>
 8    1  0.1166736E+005  0.1043930E+01  0.7957747E-01            NaN
         13   -1    0    0    0    0  0.00000000000E+00  0.00000000000E+00  0.74505805969E-08  0.10566000000E+00  0.10566000000E+00 0. -1.
     999900   -1    0    0    0    0 -0.00000000000E+00 -0.00000000000E+00 -0.74505805969E-08  0.93827000000E+00  0.93827000000E+00 0. -1.
     999902    2    1    2    0    0 -0.12241222169E-03  0.22505298133E-01 -0.15172329157E-01  0.10167877267E+01  0.10164253923E+01 0.  0.
     999903    2    3    3    0    0  0.21887136569E-01  0.11856011238E+00 -0.46599657203E-01  0.13072981406E+00  0.19575730824E-01 0.  0.
         14    1    1    2    0    0  0.12241222169E-03 -0.22505298133E-01  0.15172329157E-01  0.27142273317E-01  0.00000000000E+00 0. -1.
     999901    1    3    3    0    0 -0.22009548791E-01 -0.96054814247E-01  0.31427328047E-01  0.88605791263E+00  0.88000000000E+00 0.  1.
        -11    1    4    4    0    0  0.76694043275E-02  0.42442598968E-01 -0.68026125646E-02  0.43666126787E-01  0.51100000000E-03 0. -1.
         11    1    4    4    0    0  0.14217732242E-01  0.76117513412E-01 -0.39797044639E-01  0.87063687270E-01  0.51100000000E-03 0.  1.
</event>
<event>
 8    1  0.1166736E+005  0.1043930E+01  0.7957747E-01            NaN
         13   -1    0    0    0    0  0.00000000000E+00  0.00000000000E+00  0.74505805969E-08  0.10566000000E+00  0.10566000000E+00 0.  1.
     999900   -1    0    0    0    0 -0.00000000000E+00 -0.00000000000E+00 -0.74505805969E-08  0.93827000000E+00  0.93827000000E+00 0.  1.
     999902    2    1    2    0    0 -0.11906747671E-01  0.76102869861E-02 -0.18761893948E-01  0.10204417950E+01  0.10201714372E+01 0.  0.
     999903    2    3    3    0    0 -0.86277658114E-01  0.92856990350E-01 -0.30909994534E-01  0.13311682125E+00  0.26427360635E-01 0.  0.
         14    1    1    2    0    0  0.11906747671E-01 -0.76102869861E-02  0.18761893948E-01  0.23488204968E-01  0.00000000000E+00 0.  1.
     999901    1    3    3    0    0  0.74370910443E-01 -0.85246703364E-01  0.12148100586E-01  0.88732497378E+00  0.88000000000E+00 0.  1.
        -11    1    4    4    0    0 -0.62726426444E-01  0.54950846321E-01 -0.29525133895E-01  0.88465782868E-01  0.51100000000E-03 0. -1.
         11    1    4    4    0    0 -0.23551231670E-01  0.37906144029E-01 -0.13848606392E-02  0.44651038379E-01  0.51100000000E-03 0.  1.
</event>
<event>
 8    1  0.1166736E+005  0.1043930E+01  0.7957747E-01            NaN
         13   -1    0    0    0    0  0.00000000000E+00  0.00000000000E+00  0.74505805969E-08  0.10566000000E+00  0.10566000000E+00 0.  1.
     999900   -1    0    0    0    0 -0.00000000000E+00 -0.00000000000E+00 -0.74505805969E-08  0.93827000000E+00  0.93827000000E+00 0. -1.
     999902    2    1    2    0    0  0.86449857597E-02  0.15100416532E-02  0.21804117026E-01  0.10204260530E+01  0.10201553284E+01 0.  0.
     999903    2    3    3    0    0 -0.23266213381E-01  0.96962483390E-02  0.12965149066E+00  0.13323024903E+00  0.17477308439E-01 0.  0.
         14    1    1    2    0    0 -0.86449857597E-02 -0.15100416532E-02 -0.21804117026E-01  0.23503946985E-01  0.00000000000E+00 0. -1.
     999901    1    3    3    0    0  0.31911199141E-01 -0.81862066858E-02 -0.10784737363E+00  0.88719580399E+00  0.88000000000E+00 0. -1.
        -11    1    4    4    0    0 -0.10190056120E-01 -0.15482315442E-02  0.23227793118E-01  0.25417036782E-01  0.51100000000E-03 0.  1.
         11    1    4    4    0    0 -0.13076157261E-01  0.11244479883E-01  0.10642369754E+00  0.10781321225E+00  0.51100000000E-03 0. -1.
</event>
<event>
 8    1  0.1166736E+005  0.1043930E+01  0.7957747E-01            NaN
         13   -1    0    0    0    0  0.00000000000E+00  0.00000000000E+00  0.74505805969E-08  0.10566000000E+00  0.10566000000E+00 0. -1.
     999900   -1    0    0    0    0 -0.00000000000E+00 -0.00000000000E+00 -0.74505805969E-08  0.93827000000E+00  0.93827000000E+00 0.  1.
     999902    2    1    2    0    0 -0.18206454941E-01 -0.17819515291E-01 -0.57455836141E-03  0.10184478446E+01  0.10181290055E+01 0.  0.
     999903    2    3    3    0    0 -0.95747856573E-01 -0.72623572687E-01 -0.51016960295E-01  0.13190366093E+00  0.18815158292E-01 0.  0.
         14    1    1    2    0    0  0.18206454941E-01  0.17819515291E-01  0.57455836141E-03  0.25482155404E-01  0.00000000000E+00 0. -1.
     999901    1    3    3    0    0  0.77541401633E-01  0.54804057396E-01  0.50442401934E-01  0.88654418366E+00  0.88000000000E+00 0.  1.
        -11    1    4    4    0    0 -0.71967914217E-01 -0.44523863988E-01 -0.32091054266E-01  0.90508850540E-01  0.51100000000E-03 0.  1.
         11    1    4    4    0    0 -0.23779942356E-01 -0.28099708699E-01 -0.18925906030E-01  0.41394810393E-01  0.51100000000E-03 0. -1.
</event>
<event>
 8    1  0.1166736E+005  0.1043930E+01  0.7957747E-01            NaN
         13   -1    0    0    0    0  0.00000000000E+00  0.00000000000E+00  0.74505805969E-08  0.10566000000E+00  0.10566000000E+00 0. -1.
     999900   -1    0    0    0    0 -0.00000000000E+00 -0.00000000000E+00 -0.74505805969E-08  0.93827000000E+00  0.93827000000E+00 0.  1.
     999902    2    1    2    0    0  0.85769333618E-02 -0.98673279010E-03  0.22547888475E-01  0.10197857522E+01  0.10194998949E+01 0.  0.
     999903    2    3    3    0    0  0.68797525109E-01 -0.94123405595E-01  0.58624770031E-01  0.13209070271E+00  0.20463996178E-01 0.  0.
         14    1    1    2    0    0 -0.85769333618E-02  0.98673279010E-03 -0.22547888475E-01  0.24144247807E-01  0.00000000000E+00 0.  1.
     999901    1    3    3    0    0 -0.60220591748E-01  0.93136672805E-01 -0.36076881556E-01  0.88769504948E+00  0.88000000000E+00 0.  1.
        -11    1    4    4    0    0  0.44459408034E-01 -0.66282712563E-01  0.29777979722E-01  0.85188180781E-01  0.51100000000E-03 0. -1.
         11    1    4    4    0    0  0.24338117075E-01 -0.27840693032E-01  0.28846790310E-01  0.46902521930E-01  0.51100000000E-03 0.  1.
</event>
<event>
 8    1  0.1166736E+005  0.1043930E+01  0.7957747E-01            NaN
         13   -1    0    0    0    0  0.00000000000E+00  0.00000000000E+00  0.74505805969E-08  0.10566000000E+00  0.10566000000E+00 0.  1.
     999900   -1    0    0    0    0 -0.00000000000E+00 -0.00000000000E+00 -0.74505805969E-08  0.93827000000E+00  0.93827000000E+00 0. -1.
     999902    2    1    2    0    0 -0.12897236264E-01  0.18205257400E-01 -0.64541846210E-02  0.10207044408E+01  0.10204401643E+01 0.  0.
     999903    2    3    3    0    0  0.68621233581E-01 -0.15321173027E-01  0.10635221916E+00  0.12913584155E+00  0.20534337379E-01 0.  0.
         14    1    1    2    0    0  0.12897236264E-01 -0.18205257400E-01  0.64541846210E-02  0.23225559183E-01  0.00000000000E+00 0.  1.
     999901    1    3    3    0    0 -0.81518469846E-01  0.33526430427E-01 -0.11280640378E+00  0.89156859927E+00  0.88000000000E+00 0. -1.
        -11    1    4    4    0    0  0.45962343563E-01 -0.12613871340E-02  0.59165047232E-01  0.74932583421E-01  0.51100000000E-03 0.  1.
         11    1    4    4    0    0  0.22658890019E-01 -0.14059785893E-01  0.47187171928E-01  0.54203258129E-01  0.51100000000E-03 0. -1.
</event>
<event>
 8    1  0.1166736E+005  0.1043930E+01  0.7957747E-01            NaN
         13   -1    0    0    0    0  0.00000000000E+00  0.00000000000E+00  0.74505805969E-08  0.10566000000E+00  0.10566000000E+00 0. -1.
     999900   -1    0    0    0    0 -0.00000000000E+00 -0.00000000000E+00 -0.74505805969E-08  0.93827000000E+00  0.93827000000E+00 0. -1.
     999902    2    1    2    0    0 -0.11878448055E-01 -0.14954806868E-01 -0.14372087729E-01  0.10200281030E+01  0.10197480229E+01 0.  0.
     999903    2    3    3    0    0 -0.43887841079E-01  0.11158278148E+00  0.42449427702E-01  0.12858822998E+00  0.18871122407E-01 0.  0.
         14    1    1    2    0    0  0.11878448055E-01  0.14954806868E-01  0.14372087729E-01  0.23901897045E-01  0.00000000000E+00 0.  1.
     999901    1    3    3    0    0  0.32009393024E-01 -0.12653758835E+00 -0.56821515431E-01  0.89143987297E+00  0.88000000000E+00 0. -1.
        -11    1    4    4    0    0 -0.43746262398E-01  0.95053386942E-01  0.34044821014E-01  0.11003723371E+00  0.51100000000E-03 0. -1.
         11    1    4    4    0    0 -0.14157868091E-03  0.16529394537E-01  0.84046066880E-02  0.18550996277E-01  0.51100000000E-03 0.  1.
</event>
<event>
 8    1  0.1166736E+005  0.1043930E+01  0.7957747E-01            NaN
         13   -1    0    0    0    0  0.00000000000E+00  0.00000000000E+00  0.74505805969E-08  0.10566000000E+00  0.10566000000E+00 0. -1.
     999900   -1    0    0    0    0 -0.00000000000E+00 -0.00000000000E+00 -0.74505805969E-08  0.93827000000E+00  0.93827000000E+00 0.  1.
     999902    2    1    2    0    0 -0.81863860966E-03 -0.17170340473E-01  0.16633096008E-01  0.10200103294E+01  0.10197298276E+01 0.  0.
     999903    2    3    3    0    0  0.64153163225E-01  0.12592130549E-01  0.11281359192E+00  0.13188993914E+00  0.19845891787E-01 0.  0.
         14    1    1    2    0    0  0.81863860966E-03  0.17170340473E-01 -0.16633096008E-01  0.23919670649E-01  0.00000000000E+00 0. -1.
     999901    1    3    3    0    0 -0.64971801835E-01 -0.29762471022E-01 -0.96180495912E-01  0.88812039021E+00  0.88000000000E+00 0.  1.
        -11    1    4    4    0    0  0.29037151986E-02  0.37165418215E-02  0.18376219142E-01  0.18978693211E-01  0.51100000000E-03 0. -1.
         11    1    4    4    0    0  0.61249448026E-01  0.88755887279E-02  0.94437372779E-01  0.11291124593E+00  0.51100000000E-03 0.  1.
</event>
<event>
 8    1  0.1166736E+005  0.1043930E+01  0.7957747E-01            NaN
         13   -1    0    0    0    0  0.00000000000E+00  0.00000000000E+00  0.74505805969E-08  0.10566000000E+00  0.10566000000E+00 0. -1.
     999900   -1    0    0    0    0 -0.00000000000E+00 -0.00000000000E+00 -0.74505805969E-08  0.93827000000E+00  0.93827000000E+00 0.  1.
     999902    2    1    2    0    0 -0.10772890283E-01 -0.49663757991E-02  0.18644881510E-01  0.10218313199E+01  0.10215923330E+01 0.  0.
     999903    2    3    3    0    0 -0.51063964501E-01  0.78306809116E-01  0.93593765311E-01  0.13381379243E+00  0.20170605241E-01 0.  0.
         14    1    1    2    0    0  0.10772890283E-01  0.49663757991E-02 -0.18644881510E-01  0.22098680054E-01  0.00000000000E+00 0.  1.
     999901    1    3    3    0    0  0.40291074218E-01 -0.83273184915E-01 -0.74948883801E-01  0.88801752751E+00  0.88000000000E+00 0.  1.
        -11    1    4    4    0    0 -0.39524831271E-01  0.49291916625E-01  0.52177878134E-01  0.81943257313E-01  0.51100000000E-03 0. -1.
         11    1    4    4    0    0 -0.11539133230E-01  0.29014892491E-01  0.41415887177E-01  0.51870535120E-01  0.51100000000E-03 0.  1.
</event>
<event>
 8    1  0.1166736E+005  0.1043930E+01  0.7957747E-01            NaN
         13   -1    0    0    0    0  0.00000000000E+00  0.00000000000E+00  0.74505805969E-08  0.10566000000E+00  0.10566000000E+00 0.  1.
     999900   -1    0    0    0    0 -0.00000000000E+00 -0.00000000000E+00 -0.74505805969E-08  0.93827000000E+00  0.93827000000E+00 0.  1.
     999902    2    1    2    0    0 -0.28057913863E-01 -0.10340398876E-02 -0.58319393173E-02  0.10152537505E+01  0.10148486836E+01 0.  0.
     999903    2    3    3    0    0 -0.51527756998E-01 -0.99425254403E-01 -0.58762927881E-01  0.12787933450E+00  0.18961844453E-01 0.  0.
         14    1    1    2    0    0  0.28057913863E-01  0.10340398876E-02  0.58319393173E-02  0.28676249494E-01  0.00000000000E+00 0. -1.
     999901    1    3    3    0    0  0.23469843135E-01  0.98391214515E-01  0.52930988563E-01  0.88737441601E+00  0.88000000000E+00 0. -1.
        -11    1    4    4    0    0 -0.37457844326E-01 -0.56328150825E-01 -0.28729200669E-01  0.73495433661E-01  0.51100000000E-03 0. -1.
         11    1    4    4    0    0 -0.14069912672E-01 -0.43097103578E-01 -0.30033727212E-01  0.54383900840E-01  0.51100000000E-03 0.  1.
</event>
<event>
 8    1  0.1166736E+005  0.1043930E+01  0.7957747E-01            NaN
         13   -1    0    0    0    0  0.00000000000E+00  0.00000000000E+00  0.74505805969E-08  0.10566000000E+00  0.10566000000E+00 0.  1.
     999900   -1    0    0    0    0 -0.00000000000E+00 -0.00000000000E+00 -0.74505805969E-08  0.93827000000E+00  0.93827000000E+00 0.  1.
     999902    2    1    2    0    0 -0.12747693291E-01  0.18501244464E-01 -0.54902674032E-02  0.10208011702E+01  0.10205391155E+01 0.  0.
     999903    2    3    3    0    0 -0.71721050090E-01  0.82770825649E-01 -0.74058306038E-01  0.13383442236E+00  0.20787046717E-01 0.  0.
         14    1    1    2    0    0  0.12747693291E-01 -0.18501244464E-01  0.54902674032E-02  0.23128829783E-01  0.00000000000E+00 0. -1.
     999901    1    3    3    0    0  0.58973356799E-01 -0.64269581185E-01  0.68568038635E-01  0.88696674785E+00  0.88000000000E+00 0. -1.
        -11    1    4    4    0    0 -0.15849111834E-01  0.33128860125E-01 -0.25100123996E-01  0.44485874890E-01  0.51100000000E-03 0.  1.
         11    1    4    4    0    0 -0.55871938256E-01  0.49641965524E-01 -0.48958182043E-01  0.89348547472E-01  0.51100000000E-03 0. -1.
</event>
<event>
 8    1  0.1166736E+005  0.1043930E+01  0.7957747E-01            NaN
         13   -1    0    0    0    0  0.00000000000E+00  0.00000000000E+00  0.74505805969E-08  0.10566000000E+00  0.10566000000E+00 0.  1.
     999900   -1    0    0    0    0 -0.00000000000E+00 -0.00000000000E+00 -0.74505805969E-08  0.93827000000E+00  0.93827000000E+00 0.  1.
     999902    2    1    2    0    0 -0.41587165802E-03 -0.13805781151E-01 -0.19113089009E-01  0.10203485939E+01  0.10200760611E+01 0.  0.
     999903    2    3    3    0    0  0.33551394926E-01  0.12222533977E+00  0.81033195322E-02  0.12883360583E+00  0.21626474966E-01 0.  0.
         14    1    1    2    0    0  0.41587165802E-03  0.13805781151E-01  0.19113089009E-01  0.23581406105E-01  0.00000000000E+00 0.  1.
     999901    1    3    3    0    0 -0.33967266584E-01 -0.13603112092E+00 -0.27216408541E-01  0.89151498807E+00  0.88000000000E+00 0. -1.
        -11    1    4    4    0    0  0.16109251633E-01  0.55349132691E-01 -0.70475634189E-02  0.58077222290E-01  0.51100000000E-03 0. -1.
         11    1    4    4    0    0  0.17442143293E-01  0.66876207078E-01  0.15150882951E-01  0.70756383535E-01  0.51100000000E-03 0.  1.
</event>
<event>
 8    1  0.1166736E+005  0.1043930E+01  0.7957747E-01            NaN
         13   -1    0    0    0    0  0.00000000000E+00  0.00000000000E+00  0.74505805969E-08  0.10566000000E+00  0.10566000000E+00 0. -1.
     999900   -1    0    0    0    0 -0.00000000000E+00 -0.00000000000E+00 -0.74505805969E-08  0.93827000000E+00  0.93827000000E+00 0. -1.
     999902    2    1    2    0    0  0.17282448647E-01 -0.64992176050E-02 -0.15579250782E-01  0.10197714422E+01  0.10194852419E+01 0.  0.
     999903    2    3    3    0    0  0.79972532981E-01 -0.92034981996E-01 -0.48952787053E-01  0.13277639903E+00  0.19161232638E-01 0.  0.
         14    1    1    2    0    0 -0.17282448647E-01  0.64992176050E-02  0.15579250782E-01  0.24158557814E-01  0.00000000000E+00 0.  1.
     999901    1    3    3    0    0 -0.62690084334E-01  0.85535764391E-01  0.33373536271E-01  0.88699504316E+00  0.88000000000E+00 0.  1.
        -11    1    4    4    0    0  0.22312637964E-01 -0.37748227393E-01 -0.22440025520E-01  0.49260515127E-01  0.51100000000E-03 0. -1.
         11    1    4    4    0    0  0.57659895017E-01 -0.54286754603E-01 -0.26512761533E-01  0.83515883901E-01  0.51100000000E-03 0.  1.
</event>
<event>
 8    1  0.1166736E+005  0.1043930E+01  0.7957747E-01            NaN
         13   -1    0    0    0    0  0.00000000000E+00  0.00000000000E+00  0.74505805969E-08  0.10566000000E+00  0.10566000000E+00 0. -1.
     999900   -1    0    0    0    0 -0.00000000000E+00 -0.00000000000E+00 -0.74505805969E-08  0.93827000000E+00  0.93827000000E+00 0.  1.
     999902    2    1    2    0    0 -0.90159197732E-02  0.19679982287E-01  0.66924504223E-02  0.10212721668E+01  0.10210207938E+01 0.  0.
     999903    2    3    3    0    0 -0.32753745579E-01  0.10494814958E+00  0.74390210970E-01  0.13424503560E+00  0.20022590843E-01 0.  0.
         14    1    1    2    0    0  0.90159197732E-02 -0.19679982287E-01 -0.66924504223E-02  0.22657833190E-01  0.00000000000E+00 0.  1.
     999901    1    3    3    0    0  0.23737825806E-01 -0.85268167294E-01 -0.67697760548E-01  0.88702713121E+00  0.88000000000E+00 0.  1.
        -11    1    4    4    0    0 -0.36539402549E-02  0.40800540708E-01  0.32466094581E-01  0.52271826253E-01  0.51100000000E-03 0. -1.
         11    1    4    4    0    0 -0.29099805324E-01  0.64147608873E-01  0.41924116389E-01  0.81973209343E-01  0.51100000000E-03 0.  1.
</event>
<event>
 8    1  0.1166736E+005  0.1043930E+01  0.7957747E-01            NaN
         13   -1    0    0    0    0  0.00000000000E+00  0.00000000000E+00  0.74505805969E-08  0.10566000000E+00  0.10566000000E+00 0. -1.
     999900   -1    0    0    0    0 -0.00000000000E+00 -0.00000000000E+00 -0.74505805969E-08  0.93827000000E+00  0.93827000000E+00 0. -1.
     999902    2    1    2    0    0  0.80996056558E-02 -0.26702239877E-01 -0.21261254324E-02  0.10159454751E+01  0.10155599808E+01 0.  0.
     999903    2    3    3    0    0 -0.40609316318E-01 -0.33297067509E-01  0.11375730178E+00  0.12698820977E+00  0.20675358186E-01 0.  0.
         14    1    1    2    0    0 -0.80996056558E-02  0.26702239877E-01  0.21261254324E-02  0.27984524930E-01  0.00000000000E+00 0.  1.
     999901    1    3    3    0    0  0.48708921974E-01  0.65948276321E-02 -0.11588342721E+00  0.88895726530E+00  0.88000000000E+00 0. -1.
        -11    1    4    4    0    0 -0.38073801090E-01 -0.30842575015E-01  0.85818988803E-01  0.98823270151E-01  0.51100000000E-03 0.  1.
         11    1    4    4    0    0 -0.25355152275E-02 -0.24544924939E-02  0.27938312973E-01  0.28164939617E-01  0.51100000000E-03 0. -1.
</event>
<event>
 8    1  0.1166736E+005  0.1043930E+01  0.7957747E-01            NaN
         13   -1    0    0    0    0  0.00000000000E+00  0.00000000000E+00  0.74505805969E-08  0.10566000000E+00  0.10566000000E+00 0. -1.
     999900   -1    0    0    0    0 -0.00000000000E+00 -0.00000000000E+00 -0.74505805969E-08  0.93827000000E+00  0.93827000000E+00 0. -1.
     999902    2    1    2    0    0  0.20313521910E-01 -0.66766301944E-02  0.14987663048E-01  0.10178178073E+01  0.10174827970E+01 0.  0.
     999903    2    3    3    0    0  0.25356920551E-01  0.11570017021E+00  0.42611766806E-01  0.12890577103E+00  0.27774670613E-01 0.  0.
         14    1    1    2    0    0 -0.20313521910E-01  0.66766301944E-02 -0.14987663048E-01  0.26112192684E-01  0.00000000000E+00 0.  1.
     999901    1    3    3    0    0 -0.50433986414E-02 -0.12237680040E+00 -0.27624103759E-01  0.88891203629E+00  0.88000000000E+00 0.  1.
        -11    1    4    4    0    0  0.17681820650E-01  0.76124989943E-01  0.41694277796E-01  0.88579539382E-01  0.51100000000E-03 0. -1.
         11    1    4    4    0    0  0.76750999013E-02  0.39575180268E-01  0.91748901027E-03  0.40326231647E-01  0.51100000000E-03 0.  1.
</event>
<event>
 8    1  0.1166736E+005  0.1043930E+01  0.7957747E-01            NaN
         13   -1    0    0    0    0  0.00000000000E+00  0.00000000000E+00  0.74505805969E-08  0.10566000000E+00  0.10566000000E+00 0. -1.
     999900   -1    0    0    0    0 -0.00000000000E+00 -0.00000000000E+00 -0.74505805969E-08  0.93827000000E+00  0.93827000000E+00 0.  1.
     999902    2    1    2    0    0  0.30812039321E-02 -0.12853797103E-01  0.20420156798E-01  0.10196051830E+01  0.10193149820E+01 0.  0.
     999903    2    3    3    0    0  0.94487480901E-01  0.60432732273E-01  0.64214185208E-01  0.13076102357E+00  0.19874217629E-01 0.  0.
         14    1    1    2    0    0 -0.30812039321E-02  0.12853797103E-01 -0.20420156798E-01  0.24324816983E-01  0.00000000000E+00 0.  1.
     999901    1    3    3    0    0 -0.91406276969E-01 -0.73286529376E-01 -0.43794028410E-01  0.88884415945E+00  0.88000000000E+00 0. -1.
        -11    1    4    4    0    0  0.34688759636E-01  0.19892168430E-01  0.12451904246E-01  0.41884596814E-01  0.51100000000E-03 0.  1.
         11    1    4    4    0    0  0.59798721265E-01  0.40540563844E-01  0.51762280962E-01  0.88876426757E-01  0.51100000000E-03 0. -1.
</event>
<event>
 8    1  0.1166736E+005  0.1043930E+01  0.7957747E-01            NaN
         13   -1    0    0    0    0  0.00000000000E+00  0.00000000000E+00  0.74505805969E-08  0.10566000000E+00  0.10566000000E+00 0. -1.
     999900   -1    0    0    0    0 -0.00000000000E+00 -0.00000000000E+00 -0.74505805969E-08  0.93827000000E+00  0.93827000000E+00 0. -1.
     999902    2    1    2    0    0 -0.76299121069E-02  0.21904911418E-01 -0.11377767060E-02  0.10207064077E+01  0.10204421765E+01 0.  0.
     999903    2    3    3    0    0  0.44999650449E-01 -0.11581690891E+00 -0.24208692634E-01  0.12814299942E+00  0.19900818387E-01 0.  0.
         14    1    1    2    0    0  0.76299121069E-02 -0.21904911418E-01  0.11377767060E-02  0.23223592289E-01  0.00000000000E+00 0.  1.
     999901    1    3    3    0    0 -0.52629562555E-01  0.13772182033E+00  0.23070915928E-01  0.89256340829E+00  0.88000000000E+00 0. -1.
        -11    1    4    4    0    0  0.42247022593E-01 -0.87845217679E-01 -0.15418811915E-01  0.98689381744E-01  0.51100000000E-03 0. -1.
         11    1    4    4    0    0  0.27526278552E-02 -0.27971691231E-01 -0.87898807185E-02  0.29453617681E-01  0.51100000000E-03 0.  1.
</event>
<event>
 8    1  0.1166736E+005  0.1043930E+01  0.7957747E-01            NaN
         13   -1    0    0    0    0  0.00000000000E+00  0.00000000000E+00  0.74505805969E-08  0.10566000000E+00  0.10566000000E+00 0. -1.
     999900   -1    0    0    0    0 -0.00000000000E+00 -0.00000000000E+00 -0.74505805969E-08  0.93827000000E+00  0.93827000000E+00 0. -1.
     999902    2    1    2    0    0  0.11163609812E-01 -0.37392108658E-02 -0.19922035567E-01  0.10207892268E+01  0.10205268983E+01 0.  0.
     999903    2    3    3    0    0 -0.69328894927E-01  0.99685004745E-01 -0.43979123699E-01  0.13075869073E+00  0.20495756576E-01 0.  0.
         14    1    1    2    0    0 -0.11163609812E-01  0.37392108658E-02  0.19922035567E-01  0.23140773173E-01  0.00000000000E+00 0. -1.
     999901    1    3    3    0    0  0.80492504738E-01 -0.10342421561E+00  0.24057088132E-01  0.89003053610E+00  0.88000000000E+00 0. -1.
        -11    1    4    4    0    0 -0.72412583071E-02  0.14209244219E-01  0.88457107305E-03  0.15980676774E-01  0.51100000000E-03 0. -1.
         11    1    4    4    0    0 -0.62087636619E-01  0.85475760525E-01 -0.44863694772E-01  0.11477801396E+00  0.51100000000E-03 0.  1.
</event>
<event>
 8    1  0.1166736E+005  0.1043930E+01  0.7957747E-01            NaN
         13   -1    0    0    0    0  0.00000000000E+00  0.00000000000E+00  0.74505805969E-08  0.10566000000E+00  0.10566000000E+00 0.  1.
     999900   -1    0    0    0    0 -0.00000000000E+00 -0.00000000000E+00 -0.74505805969E-08  0.93827000000E+00  0.93827000000E+00 0. -1.
     999902    2    1    2    0    0 -0.13037672319E-01  0.18129597351E-01  0.41946356238E-02  0.10212086847E+01  0.10209558852E+01 0.  0.
     999903    2    3    3    0    0  0.10579773356E+00  0.65478068403E-01 -0.36000231169E-01  0.13105175547E+00  0.19950140317E-01 0.  0.
         14    1    1    2    0    0  0.13037672319E-01 -0.18129597351E-01 -0.41946356238E-02  0.22721315270E-01  0.00000000000E+00 0. -1.
     999901    1    3    3    0    0 -0.11883540588E+00 -0.47348471052E-01  0.40194866793E-01  0.89015692926E+00  0.88000000000E+00 0. -1.
        -11    1    4    4    0    0  0.91886109198E-01  0.54270337179E-01 -0.23590073318E-01  0.10929354620E+00  0.51100000000E-03 0.  1.
         11    1    4    4    0    0  0.13911624359E-01  0.11207731224E-01 -0.12410157850E-01  0.21758209264E-01  0.51100000000E-03 0. -1.
</event>
<event>
 8    1  0.1166736E+005  0.1043930E+01  0.7957747E-01            NaN
         13   -1    0    0    0    0  0.00000000000E+00  0.00000000000E+00  0.74505805969E-08  0.10566000000E+00  0.10566000000E+00 0.  1.
     999900   -1    0    0    0    0 -0.00000000000E+00 -0.00000000000E+00 -0.74505805969E-08  0.93827000000E+00  0.93827000000E+00 0.  1.
     999902    2    1    2    0    0  0.69890498560E-02  0.17050232411E-01  0.14884296492E-01  0.10202424605E+01  0.10199674401E+01 0.  0.
     999903    2    3    3    0    0 -0.63294184927E-01  0.11021821979E+00 -0.27862462791E-01  0.13150892771E+00  0.19080655511E-01 0.  0.
         14    1    1    2    0    0 -0.69890498560E-02 -0.17050232411E-01 -0.14884296492E-01  0.23687539450E-01  0.00000000000E+00 0. -1.
     999901    1    3    3    0    0  0.70283234783E-01 -0.93167987382E-01  0.42746759283E-01  0.88873353284E+00  0.88000000000E+00 0. -1.
        -11    1    4    4    0    0 -0.27737181734E-01  0.37569249839E-01 -0.26156727763E-02  0.46775021637E-01  0.51100000000E-03 0.  1.
         11    1    4    4    0    0 -0.35557003193E-01  0.72648969954E-01 -0.25246790015E-01  0.84733906073E-01  0.51100000000E-03 0. -1.
</event>
<event>
 8    1  0.1166736E+005  0.1043930E+01  0.7957747E-01            NaN
         13   -1    0    0    0    0  0.00000000000E+00  0.00000000000E+00  0.74505805969E-08  0.10566000000E+00  0.10566000000E+00 0.  1.
     999900   -1    0    0    0    0 -0.00000000000E+00 -0.00000000000E+00 -0.74505805969E-08  0.93827000000E+00  0.93827000000E+00 0. -1.
     999902    2    1    2    0    0  0.18026539232E-01 -0.14620239207E-01 -0.14171394021E-02  0.10206767036E+01  0.10204117882E+01 0.  0.
     999903    2    3    3    0    0  0.19538862539E-01 -0.87192418687E-01  0.95638507190E-01  0.13236999589E+00  0.19768832264E-01 0.  0.
         14    1    1    2    0    0 -0.18026539232E-01  0.14620239207E-01  0.14171394021E-02  0.23253296438E-01  0.00000000000E+00 0.  1.
     999901    1    3    3    0    0 -0.15123233063E-02  0.72572179480E-01 -0.97055646592E-01  0.88830670767E+00  0.88000000000E+00 0. -1.
        -11    1    4    4    0    0  0.12929876597E-01 -0.23427780571E-01  0.35595500566E-01  0.44534743659E-01  0.51100000000E-03 0.  1.
         11    1    4    4    0    0  0.66089859418E-02 -0.63764638116E-01  0.60043006624E-01  0.87835252232E-01  0.51100000000E-03 0. -1.
</event>
<event>
 8    1  0.1166736E+005  0.1043930E+01  0.7957747E-01            NaN
         13   -1    0    0    0    0  0.00000000000E+00  0.00000000000E+00  0.74505805969E-08  0.10566000000E+00  0.10566000000E+00 0. -1.
     999900   -1    0    0    0    0 -0.00000000000E+00 -0.00000000000E+00 -0.74505805969E-08  0.93827000000E+00  0.93827000000E+00 0. -1.
     999902    2    1    2    0    0 -0.18945207911E-01 -0.10373991554E-01 -0.92989177500E-02  0.10204138253E+01  0.10201428156E+01 0.  0.
     999903    2    3    3    0    0  0.12028660315E-01  0.96859065859E-01 -0.84009935236E-01  0.13022280909E+00  0.19337618302E-01 0.  0.
         14    1    1    2    0    0  0.18945207911E-01  0.10373991554E-01  0.92989177500E-02  0.23516174750E-01  0.00000000000E+00 0.  1.
     999901    1    3    3    0    0 -0.30973868226E-01 -0.10723305741E+00  0.74711017486E-01  0.89019101616E+00  0.88000000000E+00 0.  1.
        -11    1    4    4    0    0 -0.46784879346E-02  0.28863436726E-01 -0.20746173349E-01  0.35855976610E-01  0.51100000000E-03 0.  1.
         11    1    4    4    0    0  0.16707148250E-01  0.67995629132E-01 -0.63263761887E-01  0.94366832483E-01  0.51100000000E-03 0. -1.
</event>
<event>
 7    1  0.1166736E+005  0.1043930E+01  0.7957747E-01            NaN
         13   -1    0    0    0    0  0.00000000000E+00  0.00000000000E+00  0.74505805969E-08  0.10566000000E+00  0.10566000000E+00 0.  1.
     999900   -1    0    0    0    0 -0.00000000000E+00 -0.00000000000E+00 -0.74505805969E-08  0.93827000000E+00  0.93827000000E+00 0.  1.
     999903    2    1    2    0    0 -0.37762369928E-01 -0.66896780841E-01 -0.70803284519E-01  0.10639182236E+00  0.20123093616E-01 0.  0.
         14    1    1    2    0    0  0.23213355274E-01 -0.32355472289E-01 -0.24455586354E-01  0.46731275973E-01  0.00000000000E+00 0. -1.
     999901    1    1    2    0    0  0.14549014653E-01  0.99252253130E-01  0.95258870874E-01  0.89080690167E+00  0.88000000000E+00 0. -1.
        -11    1    3    3    0    0 -0.25566677294E-01 -0.28594033856E-01 -0.42349322707E-01  0.57140178638E-01  0.51100000000E-03 0.  1.
         11    1    3    3    0    0 -0.12195692634E-01 -0.38302746985E-01 -0.28453961812E-01  0.49251643721E-01  0.51100000000E-03 0. -1.
</event>
<event>
 8    1  0.1166736E+005  0.1043930E+01  0.7957747E-01            NaN
         13   -1    0    0    0    0  0.00000000000E+00  0.00000000000E+00  0.74505805969E-08  0.10566000000E+00  0.10566000000E+00 0. -1.
     999900   -1    0    0    0    0 -0.00000000000E+00 -0.00000000000E+00 -0.74505805969E-08  0.93827000000E+00  0.93827000000E+00 0.  1.
     999902    2    1    2    0    0  0.23039969179E-01 -0.82540246418E-03  0.43663175944E-02  0.10204654267E+01  0.10201956190E+01 0.  0.
     999903    2    3    3    0    0 -0.14067319493E-01  0.95090695086E-01  0.86352981816E-01  0.13069092623E+00  0.19574242290E-01 0.  0.
         14    1    1    2    0    0 -0.23039969179E-01  0.82540246418E-03 -0.43663175944E-02  0.23464573262E-01  0.00000000000E+00 0.  1.
     999901    1    3    3    0    0  0.37107288673E-01 -0.95916097550E-01 -0.81986664221E-01  0.88977450051E+00  0.88000000000E+00 0.  1.
        -11    1    4    4    0    0 -0.13538312023E-01  0.68453702172E-01  0.51056113489E-01  0.86464923981E-01  0.51100000000E-03 0.  1.
         11    1    4    4    0    0 -0.52900747085E-03  0.26636992914E-01  0.35296868327E-01  0.44226002251E-01  0.51100000000E-03 0. -1.
</event>
<event>
 8    1  0.2031425E+005  0.1043930E+01  0.7957747E-01            NaN
         13   -1    0    0    0    0  0.00000000000E+00  0.00000000000E+00  0.74505805969E-08  0.10566000000E+00  0.10566000000E+00 0. -1.
     999900   -1    0    0    0    0 -0.00000000000E+00 -0.00000000000E+00 -0.74505805969E-08  0.93827000000E+00  0.93827000000E+00 0. -1.
     999902    2    1    2    0    0 -0.16607420342E-01 -0.61540121158E-02 -0.15900708426E-01  0.10201285126E+01  0.10198508084E+01 0.  0.
     999903    2    3    3    0    0 -0.79408973224E-01 -0.57324142500E-02 -0.10490633258E+00  0.13341197730E+00  0.21325371507E-01 0.  0.
         14    1    1    2    0    0  0.16607420342E-01  0.61540121158E-02  0.15900708426E-01  0.23801487432E-01  0.00000000000E+00 0. -1.
     999901    1    3    3    0    0  0.62801552881E-01 -0.42159786585E-03  0.89005624153E-01  0.88671653527E+00  0.88000000000E+00 0.  1.
        -11    1    4    4    0    0 -0.39979030991E-01 -0.25734555277E-02 -0.35532391839E-01  0.53551448002E-01  0.51100000000E-03 0.  1.
         11    1    4    4    0    0 -0.39429942233E-01 -0.31589587223E-02 -0.69373940740E-01  0.79860529296E-01  0.51100000000E-03 0. -1.
</event>
<event>
 8    1  0.1166736E+005  0.1043930E+01  0.7957747E-01            NaN
         13   -1    0    0    0    0  0.00000000000E+00  0.00000000000E+00  0.74505805969E-08  0.10566000000E+00  0.10566000000E+00 0.  1.
     999900   -1    0    0    0    0 -0.00000000000E+00 -0.00000000000E+00 -0.74505805969E-08  0.93827000000E+00  0.93827000000E+00 0.  1.
     999902    2    1    2    0    0  0.23960918584E-02 -0.10328295123E-01 -0.21193064328E-01  0.10202327235E+01  0.10199574742E+01 0.  0.
     999903    2    3    3    0    0  0.12612519152E+00 -0.28207670883E-01  0.49462791016E-02  0.13101293774E+00  0.20897070242E-01 0.  0.
         14    1    1    2    0    0 -0.23960918584E-02  0.10328295123E-01  0.21193064328E-01  0.23697276467E-01  0.00000000000E+00 0.  1.
     999901    1    3    3    0    0 -0.12372909966E+00  0.17879375760E-01 -0.26139343429E-01  0.88921978580E+00  0.88000000000E+00 0.  1.
        -11    1    4    4    0    0  0.51170431846E-01 -0.20985583617E-02 -0.25966145150E-02  0.51281776202E-01  0.51100000000E-03 0. -1.
         11    1    4    4    0    0  0.74954759673E-01 -0.26109112521E-01  0.75428936166E-02  0.79731161533E-01  0.51100000000E-03 0.  1.
</event>
<event>
 8    1  0.1166736E+005  0.1043930E+01  0.7957747E-01            NaN
         13   -1    0    0    0    0  0.00000000000E+00  0.00000000000E+00  0.74505805969E-08  0.10566000000E+00  0.10566000000E+00 0.  1.
     999900   -1    0    0    0    0 -0.00000000000E+00 -0.00000000000E+00 -0.74505805969E-08  0.93827000000E+00  0.93827000000E+00 0.  1.
     999902    2    1    2    0    0 -0.17926147132E-01  0.29519981098E-02 -0.11143553340E-02  0.10257282739E+01  0.10255667648E+01 0.  0.
     999903    2    3    3    0    0 -0.38894379160E-01 -0.50734481055E-02 -0.12888601542E+00  0.13621735683E+00  0.20125872025E-01 0.  0.
         14    1    1    2    0    0  0.17926147132E-01 -0.29519981098E-02  0.11143553340E-02  0.18201726062E-01  0.00000000000E+00 0.  1.
     999901    1    3    3    0    0  0.20968232028E-01  0.80254462153E-02  0.12777166008E+00  0.88951091711E+00  0.88000000000E+00 0. -1.
        -11    1    4    4    0    0 -0.59304269913E-02 -0.89764697367E-02 -0.27477085513E-01  0.29512680707E-01  0.51100000000E-03 0.  1.
         11    1    4    4    0    0 -0.32963952169E-01  0.39030216312E-02 -0.10140892990E+00  0.10670467612E+00  0.51100000000E-03 0. -1.
</event>
<event>
 8    1  0.1166736E+005  0.1043930E+01  0.7957747E-01            NaN
         13   -1    0    0    0    0  0.00000000000E+00  0.00000000000E+00  0.74505805969E-08  0.10566000000E+00  0.10566000000E+00 0. -1.
     999900   -1    0    0    0    0 -0.00000000000E+00 -0.00000000000E+00 -0.74505805969E-08  0.93827000000E+00  0.93827000000E+00 0.  1.
     999902    2    1    2    0    0  0.17675302836E-01 -0.18501834654E-01 -0.20976546195E-02  0.10182563877E+01  0.10179326778E+01 0.  0.
     999903    2    3    3    0    0 -0.75971106533E-01 -0.79532207066E-01 -0.64269244868E-01  0.12900970480E+00  0.20395761982E-01 0.  0.
         14    1    1    2    0    0 -0.17675302836E-01  0.18501834654E-01  0.20976546195E-02  0.25673612344E-01  0.00000000000E+00 0. -1.
     999901    1    3    3    0    0  0.93646409369E-01  0.61030372413E-01  0.62171590248E-01  0.88924668286E+00  0.88000000000E+00 0. -1.
        -11    1    4    4    0    0 -0.64058469546E-01 -0.64890722780E-01 -0.43790040626E-01  0.10115395297E+00  0.51100000000E-03 0.  1.
         11    1    4    4    0    0 -0.11912636987E-01 -0.14641484287E-01 -0.20479204242E-01  0.27855751820E-01  0.51100000000E-03 0. -1.
</event>
<event>
 8    1  0.1166736E+005  0.1043930E+01  0.7957747E-01            NaN
         13   -1    0    0    0    0  0.00000000000E+00  0.00000000000E+00  0.74505805969E-08  0.10566000000E+00  0.10566000000E+00 0.  1.
     999900   -1    0    0    0    0 -0.00000000000E+00 -0.00000000000E+00 -0.74505805969E-08  0.93827000000E+00  0.93827000000E+00 0. -1.
     999902    2    1    2    0    0  0.16167714171E-01 -0.19403507976E-01  0.63732958606E-02  0.10178817754E+01  0.10175484257E+01 0.  0.
     999903    2    3    3    0    0 -0.65928518619E-01  0.72704917264E-01 -0.75511490950E-01  0.12550916729E+00  0.20444834239E-01 0.  0.
         14    1    1    2    0    0 -0.16167714171E-01  0.19403507976E-01 -0.63732958606E-02  0.26048224574E-01  0.00000000000E+00 0.  1.
     999901    1    3    3    0    0  0.82096232790E-01 -0.92108425240E-01  0.81884786811E-01  0.89237260813E+00  0.88000000000E+00 0.  1.
        -11    1    4    4    0    0 -0.22247585153E-01  0.34579690576E-01 -0.22136541441E-01  0.46701152378E-01  0.51100000000E-03 0.  1.
         11    1    4    4    0    0 -0.43680933466E-01  0.38125226687E-01 -0.53374949510E-01  0.78808014913E-01  0.51100000000E-03 0. -1.
</event>
<event>
 8    1  0.1166736E+005  0.1043930E+01  0.7957747E-01            NaN
         13   -1    0    0    0    0  0.00000000000E+00  0.00000000000E+00  0.74505805969E-08  0.10566000000E+00  0.10566000000E+00 0.  1.
     999900   -1    0    0    0    0 -0.00000000000E+00 -0.00000000000E+00 -0.74505805969E-08  0.93827000000E+00  0.93827000000E+00 0. -1.
     999902    2    1    2    0    0  0.15016939954E-01 -0.18709864296E-01 -0.42269630009E-02  0.10195694843E+01  0.10192784206E+01 0.  0.
     999903    2    3    3    0    0  0.35476890859E-01 -0.85893714788E-01 -0.93167109419E-01  0.13230254084E+00  0.13693502508E-01 0.  0.
         14    1    1    2    0    0 -0.15016939954E-01  0.18709864296E-01  0.42269630009E-02  0.24360515672E-01  0.00000000000E+00 0. -1.
     999901    1    3    3    0    0 -0.20459950904E-01  0.67183850491E-01  0.88940146418E-01  0.88726694349E+00  0.88000000000E+00 0. -1.
        -11    1    4    4    0    0  0.10611590315E-01 -0.42336696580E-01 -0.39907140397E-01  0.59142562525E-01  0.51100000000E-03 0. -1.
         11    1    4    4    0    0  0.24865300544E-01 -0.43557018207E-01 -0.53259969022E-01  0.73159978318E-01  0.51100000000E-03 0.  1.
</event>
<event>
 8    1  0.1166736E+005  0.1043930E+01  0.7957747E-01            NaN
         13   -1    0    0    0    0  0.00000000000E+00  0.00000000000E+00  0.74505805969E-08  0.10566000000E+00  0.10566000000E+00 0.  1.
     999900   -1    0    0    0    0 -0.00000000000E+00 -0.00000000000E+00 -0.74505805969E-08  0.93827000000E+00  0.93827000000E+00 0.  1.
     999902    2    1    2    0    0  0.77134414612E-02 -0.15772211627E-01 -0.13015233487E-01  0.10220746542E+01  0.10218409576E+01 0.  0.
     999903    2    3    3    0    0 -0.11891987289E+00  0.70793327320E-02  0.49425983363E-01  0.13052706994E+00  0.20058290918E-01 0.  0.
         14    1    1    2    0    0 -0.77134414612E-02  0.15772211627E-01  0.13015233487E-01  0.21855345834E-01  0.00000000000E+00 0.  1.
     999901    1    3    3    0    0  0.12663331435E+00 -0.22851544359E-01 -0.62441216850E-01  0.89154758423E+00  0.88000000000E+00 0.  1.
        -11    1    4    4    0    0 -0.49585948066E-01 -0.39508557126E-02  0.28190462803E-01  0.57178132363E-01  0.51100000000E-03 0. -1.
         11    1    4    4    0    0 -0.69333924826E-01  0.11030188445E-01  0.21235520560E-01  0.73348937574E-01  0.51100000000E-03 0.  1.
</event>
<event>
 8    1  0.1166736E+005  0.1043930E+01  0.7957747E-01            NaN
         13   -1    0    0    0    0  0.00000000000E+00  0.00000000000E+00  0.74505805969E-08  0.10566000000E+00  0.10566000000E+00 0.  1.
     999900   -1    0    0    0    0 -0.00000000000E+00 -0.00000000000E+00 -0.74505805969E-08  0.93827000000E+00  0.93827000000E+00 0.  1.
     999902    2    1    2    0    0  0.18929766002E-01  0.11961908571E-01  0.81162917367E-02  0.10201119923E+01  0.10198338980E+01 0.  0.
     999903    2    3    3    0    0  0.10671294662E+00 -0.72975828951E-01 -0.12694244781E-01  0.13143129350E+00  0.19997911732E-01 0.  0.
         14    1    1    2    0    0 -0.18929766002E-01 -0.11961908571E-01 -0.81162917367E-02  0.23818007665E-01  0.00000000000E+00 0. -1.
     999901    1    3    3    0    0 -0.87783180614E-01  0.84937737523E-01  0.20810536517E-01  0.88868069884E+00  0.88000000000E+00 0. -1.
        -11    1    4    4    0    0  0.69340384293E-01 -0.45367319130E-01 -0.17576941697E-01  0.84708279048E-01  0.51100000000E-03 0. -1.
         11    1    4    4    0    0  0.37372562323E-01 -0.27608509821E-01  0.48826969168E-02  0.46723014450E-01  0.51100000000E-03 0.  1.
</event>
<event>
 8    1  0.1166736E+005  0.1043930E+01  0.7957747E-01            NaN
         13   -1    0    0    0    0  0.00000000000E+00  0.00000000000E+00  0.74505805969E-08  0.10566000000E+00  0.10566000000E+00 0.  1.
     999900   -1    0    0    0    0 -0.00000000000E+00 -0.00000000000E+00 -0.74505805969E-08  0.93827000000E+00  0.93827000000E+00 0. -1.
     999902    2    1    2    0    0 -0.66378603736E-02 -0.28536401573E-02 -0.22258013872E-01  0.10205286403E+01  0.10202603012E+01 0.  0.
     999903    2    3    3    0    0 -0.15726926870E-01 -0.24682195146E-01 -0.12893489787E+00  0.13377103280E+00  0.20345376445E-01 0.  0.
         14    1    1    2    0    0  0.66378603736E-02  0.28536401573E-02  0.22258013872E-01  0.23401359661E-01  0.00000000000E+00 0.  1.
     999901    1    3    3    0    0  0.90890664965E-02  0.21828554988E-01  0.10667688400E+00  0.88675760754E+00  0.88000000000E+00 0.  1.
        -11    1    4    4    0    0 -0.62505099999E-02 -0.96617489018E-02 -0.17645786376E-01  0.21072569016E-01  0.51100000000E-03 0. -1.
         11    1    4    4    0    0 -0.94764168702E-02 -0.15020446244E-01 -0.11128911149E+00  0.11269846379E+00  0.51100000000E-03 0.  1.
</event>
<event>
 8    1  0.1166736E+005  0.1043930E+01  0.7957747E-01            NaN
         13   -1    0    0    0    0  0.00000000000E+00  0.00000000000E+00  0.74505805969E-08  0.10566000000E+00  0.10566000000E+00 0. -1.
     999900   -1    0    0    0    0 -0.00000000000E+00 -0.00000000000E+00 -0.74505805969E-08  0.93827000000E+00  0.93827000000E+00 0. -1.
     999902    2    1    2    0    0 -0.28262958510E-03  0.22121822774E-01 -0.75825594253E-02  0.10205430350E+01  0.10202750297E+01 0.  0.
     999903    2    3    3    0    0  0.34568953954E-01 -0.92663275534E-01 -0.80964293842E-01  0.12937799387E+00  0.20048770790E-01 0.  0.
         14    1    1    2    0    0  0.28262958510E-03 -0.22121822774E-01  0.75825594253E-02  0.23386964954E-01  0.00000000000E+00 0. -1.
     999901    1    3    3    0    0 -0.34851583539E-01  0.11478509831E+00  0.73381734417E-01  0.89116504118E+00  0.88000000000E+00 0. -1.
        -11    1    4    4    0    0  0.35246516174E-02 -0.34474155610E-01 -0.32711364988E-01  0.47656952215E-01  0.51100000000E-03 0. -1.
         11    1    4    4    0    0  0.31044302336E-01 -0.58189119924E-01 -0.48252928854E-01  0.81721041654E-01  0.51100000000E-03 0.  1.
</event>
<event>
 8    1  0.1166736E+005  0.1043930E+01  0.7957747E-01            NaN
         13   -1    0    0    0    0  0.00000000000E+00  0.00000000000E+00  0.74505805969E-08  0.10566000000E+00  0.10566000000E+00 0.  1.
     999900   -1    0    0    0    0 -0.00000000000E+00 -0.00000000000E+00 -0.74505805969E-08  0.93827000000E+00  0.93827000000E+00 0.  1.
     999902    2    1    2    0    0  0.21188052982E-01  0.10225723434E-01 -0.64796752470E-02  0.10195274346E+01  0.10192353529E+01 0.  0.
     999903    2    3    3    0    0  0.12762434840E-01 -0.76932724377E-01 -0.10210666189E+00  0.13002639091E+00  0.19989199799E-01 0.  0.
         14    1    1    2    0    0 -0.21188052982E-01 -0.10225723434E-01  0.64796752470E-02  0.24402565444E-01  0.00000000000E+00 0. -1.
     999901    1    3    3    0    0  0.84256181418E-02  0.87158447811E-01  0.95626986643E-01  0.88950104364E+00  0.88000000000E+00 0. -1.
        -11    1    4    4    0    0  0.12161949148E-01 -0.20588634226E-01 -0.25977660629E-01  0.35311539744E-01  0.51100000000E-03 0. -1.
         11    1    4    4    0    0  0.60048569233E-03 -0.56344090151E-01 -0.76129001262E-01  0.94714851170E-01  0.51100000000E-03 0.  1.
</event>
<event>
 8    1  0.1166736E+005  0.1043930E+01  0.7957747E-01            NaN
         13   -1    0    0    0    0  0.00000000000E+00  0.00000000000E+00  0.74505805969E-08  0.10566000000E+00  0.10566000000E+00 0. -1.
     999900   -1    0    0    0    0 -0.00000000000E+00 -0.00000000000E+00 -0.74505805969E-08  0.93827000000E+00  0.93827000000E+00 0.  1.
     999902    2    1    2    0    0 -0.46722004603E-03 -0.24243075092E-01  0.17447902326E-02  0.10196197290E+01  0.10193298791E+01 0.  0.
     999903    2    3    3    0    0  0.10572907649E+00  0.50504516678E-01  0.50213765761E-01  0.12876951852E+00  0.18188535044E-01 0.  0.
         14    1    1    2    0    0  0.46722004603E-03  0.24243075092E-01 -0.17447902326E-02  0.24310271028E-01  0.00000000000E+00 0.  1.
     999901    1    3    3    0    0 -0.10619629654E+00 -0.74747591770E-01 -0.48468975528E-01  0.89085021045E+00  0.88000000000E+00 0.  1.
        -11    1    4    4    0    0  0.47545334365E-01  0.12836300685E-01  0.21713885448E-01  0.53824561098E-01  0.51100000000E-03 0. -1.
         11    1    4    4    0    0  0.58183742128E-01  0.37668215993E-01  0.28499880312E-01  0.74944957421E-01  0.51100000000E-03 0.  1.
</event>
<event>
 8    1  0.1166736E+005  0.1043930E+01  0.7957747E-01            NaN
         13   -1    0    0    0    0  0.00000000000E+00  0.00000000000E+00  0.74505805969E-08  0.10566000000E+00  0.10566000000E+00 0. -1.
     999900   -1    0    0    0    0 -0.00000000000E+00 -0.00000000000E+00 -0.74505805969E-08  0.93827000000E+00  0.93827000000E+00 0.  1.
     999902    2    1    2    0    0  0.11599245262E-01 -0.11619620635E-01 -0.17424258787E-01  0.10199891799E+01  0.10197081760E+01 0.  0.
     999903    2    3    3    0    0  0.93583284542E-01  0.88432692416E-01 -0.61401437431E-03  0.13037441360E+00  0.20467986575E-01 0.  0.
         14    1    1    2    0    0 -0.11599245262E-01  0.11619620635E-01  0.17424258787E-01  0.23940820133E-01  0.00000000000E+00 0. -1.
     999901    1    3    3    0    0 -0.81984039280E-01 -0.10005231305E+00 -0.16810244413E-01  0.88961476627E+00  0.88000000000E+00 0.  1.
        -11    1    4    4    0    0  0.62839621686E-01  0.68268003743E-01 -0.70088756047E-02  0.93052264061E-01  0.51100000000E-03 0. -1.
         11    1    4    4    0    0  0.30743662856E-01  0.20164688673E-01  0.63948612304E-02  0.37322149539E-01  0.51100000000E-03 0.  1.
</event>
<event>
 8    1  0.1166736E+005  0.1043930E+01  0.7957747E-01            NaN
         13   -1    0    0    0    0  0.00000000000E+00  0.00000000000E+00  0.74505805969E-08  0.10566000000E+00  0.10566000000E+00 0. -1.
     999900   -1    0    0    0    0 -0.00000000000E+00 -0.00000000000E+00 -0.74505805969E-08  0.93827000000E+00  0.93827000000E+00 0.  1.
     999902    2    1    2    0    0  0.20931078063E-01 -0.43572783350E-02  0.10209514001E-01  0.10202375945E+01  0.10199624597E+01 0.  0.
     999903    2    3    3    0    0  0.66242947772E-01  0.66295135366E-01  0.91611460006E-01  0.13250384728E+00  0.19530408002E-01 0.  0.
         14    1    1    2    0    0 -0.20931078063E-01  0.43572783350E-02 -0.10209514001E-01  0.23692405523E-01  0.00000000000E+00 0.  1.
     999901    1    3    3    0    0 -0.45311869709E-01 -0.70652413701E-01 -0.81401946006E-01  0.88773374720E+00  0.88000000000E+00 0.  1.
        -11    1    4    4    0    0  0.13332264518E-01  0.97515804893E-02  0.74255226060E-02  0.18117453082E-01  0.51100000000E-03 0.  1.
         11    1    4    4    0    0  0.52910683254E-01  0.56543554877E-01  0.84185937400E-01  0.11438639420E+00  0.51100000000E-03 0. -1.
</event>
<event>
 8    1  0.1166736E+005  0.1043930E+01  0.7957747E-01            NaN
         13   -1    0    0    0    0  0.00000000000E+00  0.00000000000E+00  0.74505805969E-08  0.10566000000E+00  0.10566000000E+00 0. -1.
     999900   -1    0    0    0    0 -0.00000000000E+00 -0.00000000000E+00 -0.74505805969E-08  0.93827000000E+00  0.93827000000E+00 0.  1.
     999902    2    1    2    0    0  0.52585696949E-02 -0.92425263213E-02 -0.22645064696E-01  0.10189124901E+01  0.10186053144E+01 0.  0.
     999903    2    3    3    0    0 -0.13228441633E-01  0.88379771937E-01  0.87465921124E-01  0.12650209574E+00  0.19144636680E-01 0.  0.
         14    1    1    2    0    0 -0.52585696949E-02  0.92425263213E-02  0.22645064696E-01  0.25017509930E-01  0.00000000000E+00 0. -1.
     999901    1    3    3    0    0  0.18487011328E-01 -0.97622298258E-01 -0.11011098582E+00  0.89241039433E+00  0.88000000000E+00 0. -1.
        -11    1    4    4    0    0 -0.10255984154E-01  0.47534553950E-01  0.34870144104E-01  0.59840680987E-01  0.51100000000E-03 0. -1.
         11    1    4    4    0    0 -0.29724574787E-02  0.40845217987E-01  0.52595777020E-01  0.66661414755E-01  0.51100000000E-03 0.  1.
</event>
<event>
 8    1  0.1166736E+005  0.1043930E+01  0.7957747E-01            NaN
         13   -1    0    0    0    0  0.00000000000E+00  0.00000000000E+00  0.74505805969E-08  0.10566000000E+00  0.10566000000E+00 0.  1.
     999900   -1    0    0    0    0 -0.00000000000E+00 -0.00000000000E+00 -0.74505805969E-08  0.93827000000E+00  0.93827000000E+00 0. -1.
     999902    2    1    2    0    0  0.23291705927E-01  0.43567426828E-02  0.12652904356E-01  0.10170677447E+01  0.10167129470E+01 0.  0.
     999903    2    3    3    0    0  0.10221154036E+00  0.72483732303E-01  0.31621046606E-01  0.13071035774E+00  0.19601443846E-01 0.  0.
         14    1    1    2    0    0 -0.23291705927E-01 -0.43567426828E-02 -0.12652904356E-01  0.26862255312E-01  0.00000000000E+00 0. -1.
     999901    1    3    3    0    0 -0.78919834429E-01 -0.68126989620E-01 -0.18968142250E-01  0.88635738695E+00  0.88000000000E+00 0.  1.
        -11    1    4    4    0    0  0.71970733310E-01  0.58296385706E-01  0.29627848868E-01  0.97243640352E-01  0.51100000000E-03 0. -1.
         11    1    4    4    0    0  0.30240807047E-01  0.14187346598E-01  0.19931977377E-02  0.33466717385E-01  0.51100000000E-03 0.  1.
</event>
<event>
 8    1  0.1166736E+005  0.1043930E+01  0.7957747E-01            NaN
         13   -1    0    0    0    0  0.00000000000E+00  0.00000000000E+00  0.74505805969E-08  0.10566000000E+00  0.10566000000E+00 0. -1.
     999900   -1    0    0    0    0 -0.00000000000E+00 -0.00000000000E+00 -0.74505805969E-08  0.93827000000E+00  0.93827000000E+00 0. -1.
     999902    2    1    2    0    0 -0.88686272514E-02  0.56271803983E-03 -0.21912980463E-01  0.10202836913E+01  0.10200096386E+01 0.  0.
     999903    2    3    3    0    0 -0.20314414240E-01  0.66794237558E-01  0.10608926936E+00  0.12848651922E+00  0.19486070720E-01 0.  0.
         14    1    1    2    0    0  0.88686272514E-02 -0.56271803983E-03  0.21912980463E-01  0.23646308670E-01  0.00000000000E+00 0. -1.
     999901    1    3    3    0    0  0.11445786988E-01 -0.66231519518E-01 -0.12800224982E+00  0.89179717211E+00  0.88000000000E+00 0. -1.
        -11    1    4    4    0    0 -0.89758932028E-02  0.68444224772E-02  0.13552706806E-01  0.17645105854E-01  0.51100000000E-03 0.  1.
         11    1    4    4    0    0 -0.11338521037E-01  0.59949815081E-01  0.92536562554E-01  0.11084141337E+00  0.51100000000E-03 0. -1.
</event>
<event>
 8    1  0.1166736E+005  0.1043930E+01  0.7957747E-01            NaN
         13   -1    0    0    0    0  0.00000000000E+00  0.00000000000E+00  0.74505805969E-08  0.10566000000E+00  0.10566000000E+00 0.  1.
     999900   -1    0    0    0    0 -0.00000000000E+00 -0.00000000000E+00 -0.74505805969E-08  0.93827000000E+00  0.93827000000E+00 0.  1.
     999902    2    1    2    0    0  0.93204568429E-02 -0.66501899534E-02  0.22390388347E-01  0.10187819298E+01  0.10184714994E+01 0.  0.
     999903    2    3    3    0    0  0.22425327414E-02  0.10850336514E+00  0.69146757917E-01  0.13002065911E+00  0.18603453076E-01 0.  0.
         14    1    1    2    0    0 -0.93204568429E-02  0.66501899534E-02 -0.22390388347E-01  0.25148070154E-01  0.00000000000E+00 0. -1.
     999901    1    3    3    0    0  0.70779241015E-02 -0.11515355509E+00 -0.46756369571E-01  0.88876127073E+00  0.88000000000E+00 0.  1.
        -11    1    4    4    0    0 -0.81779491464E-02  0.44912952399E-01  0.29719336990E-01  0.54475244447E-01  0.51100000000E-03 0. -1.
         11    1    4    4    0    0  0.10420481888E-01  0.63590412738E-01  0.39427420927E-01  0.75545414665E-01  0.51100000000E-03 0.  1.
</event>
<event>
 8    1  0.1166736E+005  0.1043930E+01  0.7957747E-01            NaN
         13   -1    0    0    0    0  0.00000000000E+00  0.00000000000E+00  0.74505805969E-08  0.10566000000E+00  0.10566000000E+00 0.  1.
     999900   -1    0    0    0    0 -0.00000000000E+00 -0.00000000000E+00 -0.74505805969E-08  0.93827000000E+00  0.93827000000E+00 0. -1.
     999902    2    1    2    0    0  0.33801787476E-02 -0.22090174589E-01  0.88096539487E-02  0.10199089379E+01  0.10196260247E+01 0.  0.
     999903    2    3    3    0    0  0.10541501528E+00  0.39799814524E-01  0.61997727362E-01  0.13026268811E+00  0.20695386746E-01 0.  0.
         14    1    1    2    0    0 -0.33801787476E-02  0.22090174589E-01 -0.88096539487E-02  0.24021062101E-01  0.00000000000E+00 0. -1.
     999901    1    3    3    0    0 -0.10203483653E+00 -0.61889989113E-01 -0.53188073413E-01  0.88964624979E+00  0.88000000000E+00 0.  1.
        -11    1    4    4    0    0  0.44474272315E-01  0.63565736721E-02  0.27234934102E-01  0.52539220430E-01  0.51100000000E-03 0.  1.
         11    1    4    4    0    0  0.60940742962E-01  0.33443240851E-01  0.34762793260E-01  0.77723467676E-01  0.51100000000E-03 0. -1.
</event>
<event>
 8    1  0.1166736E+005  0.1043930E+01  0.7957747E-01            NaN
         13   -1    0    0    0    0  0.00000000000E+00  0.00000000000E+00  0.74505805969E-08  0.10566000000E+00  0.10566000000E+00 0.  1.
     999900   -1    0    0    0    0 -0.00000000000E+00 -0.00000000000E+00 -0.74505805969E-08  0.93827000000E+00  0.93827000000E+00 0.  1.
     999902    2    1    2    0    0  0.10863961162E-01 -0.59520308266E-02 -0.19587020296E-01  0.10207545024E+01  0.10204913770E+01 0.  0.
     999903    2    3    3    0    0 -0.47348751711E-01  0.10084596783E+00  0.59004984009E-01  0.12891862315E+00  0.26955699578E-01 0.  0.
         14    1    1    2    0    0 -0.10863961162E-01  0.59520308266E-02  0.19587020296E-01  0.23175497560E-01  0.00000000000E+00 0.  1.
     999901    1    3    3    0    0  0.58212712872E-01 -0.10679799866E+00 -0.78592004305E-01  0.89183587929E+00  0.88000000000E+00 0.  1.
        -11    1    4    4    0    0 -0.27702918467E-01  0.32488950206E-01  0.29590369620E-01  0.51950309646E-01  0.51100000000E-03 0.  1.
         11    1    4    4    0    0 -0.19645833243E-01  0.68357017624E-01  0.29414614389E-01  0.76968313499E-01  0.51100000000E-03 0. -1.
</event>
<event>
 8    1  0.1166736E+005  0.1043930E+01  0.7957747E-01            NaN
         13   -1    0    0    0    0  0.00000000000E+00  0.00000000000E+00  0.74505805969E-08  0.10566000000E+00  0.10566000000E+00 0.  1.
     999900   -1    0    0    0    0 -0.00000000000E+00 -0.00000000000E+00 -0.74505805969E-08  0.93827000000E+00  0.93827000000E+00 0. -1.
     999902    2    1    2    0    0 -0.56388240460E-02  0.11529561525E-01 -0.18787003111E-01  0.10211774482E+01  0.10209239453E+01 0.  0.
     999903    2    3    3    0    0 -0.23137075418E-01  0.90025033598E-01 -0.93902101104E-01  0.13432345469E+00  0.24194109912E-01 0.  0.
         14    1    1    2    0    0  0.56388240460E-02 -0.11529561525E-01  0.18787003111E-01  0.22752551758E-01  0.00000000000E+00 0.  1.
     999901    1    3    3    0    0  0.17498251372E-01 -0.78495472073E-01  0.75115097993E-01  0.88685399355E+00  0.88000000000E+00 0.  1.
        -11    1    4    4    0    0 -0.80541420149E-02  0.65664595209E-01 -0.55173313081E-01  0.86145596898E-01  0.51100000000E-03 0. -1.
         11    1    4    4    0    0 -0.15082933403E-01  0.24360438389E-01 -0.38728788023E-01  0.48177857790E-01  0.51100000000E-03 0.  1.
</event>
<event>
 7    1  0.1166736E+005  0.1043930E+01  0.7957747E-01            NaN
         13   -1    0    0    0    0  0.00000000000E+00  0.00000000000E+00  0.74505805969E-08  0.10566000000E+00  0.10566000000E+00 0. -1.
     999900   -1    0    0    0    0 -0.00000000000E+00 -0.00000000000E+00 -0.74505805969E-08  0.93827000000E+00  0.93827000000E+00 0. -1.
     999903    2    1    2    0    0 -0.70998367143E-01  0.39061957734E-01  0.70243389392E-01  0.10897760572E+00  0.19374728799E-01 0.  0.
         14    1    1    2    0    0  0.82408884618E-02  0.11430617235E-01 -0.49034600182E-01  0.51019244095E-01  0.00000000000E+00 0.  1.
     999901    1    1    2    0    0  0.62757478682E-01 -0.50492574969E-01 -0.21208789209E-01  0.88393315019E+00  0.88000000000E+00 0. -1.
        -11    1    3    3    0    0 -0.70019979881E-02  0.46712214029E-02  0.16757981062E-01  0.18760046255E-01  0.51100000000E-03 0. -1.
         11    1    3    3    0    0 -0.63996369155E-01  0.34390736331E-01  0.53485408329E-01  0.90217559464E-01  0.51100000000E-03 0.  1.
</event>
<event>
 8    1  0.1166736E+005  0.1043930E+01  0.7957747E-01            NaN
         13   -1    0    0    0    0  0.00000000000E+00  0.00000000000E+00  0.74505805969E-08  0.10566000000E+00  0.10566000000E+00 0.  1.
     999900   -1    0    0    0    0 -0.00000000000E+00 -0.00000000000E+00 -0.74505805969E-08  0.93827000000E+00  0.93827000000E+00 0. -1.
     999902    2    1    2    0    0 -0.16174368802E-01  0.91241233730E-02 -0.18533462206E-01  0.10176935930E+01  0.10173553460E+01 0.  0.
     999903    2    3    3    0    0 -0.79238027527E-01  0.74126748455E-01  0.66804069229E-01  0.12893892456E+00  0.19723659846E-01 0.  0.
         14    1    1    2    0    0  0.16174368802E-01 -0.91241233730E-02  0.18533462206E-01  0.26236407049E-01  0.00000000000E+00 0.  1.
     999901    1    3    3    0    0  0.63063658725E-01 -0.65002625082E-01 -0.85337531435E-01  0.88875466839E+00  0.88000000000E+00 0. -1.
        -11    1    4    4    0    0 -0.55969219389E-01  0.42390850584E-01  0.35648666870E-01  0.78744055667E-01  0.51100000000E-03 0.  1.
         11    1    4    4    0    0 -0.23268808138E-01  0.31735897871E-01  0.31155402359E-01  0.50194868891E-01  0.51100000000E-03 0. -1.
</event>
<event>
 8    1  0.1166736E+005  0.1043930E+01  0.7957747E-01            NaN
         13   -1    0    0    0    0  0.00000000000E+00  0.00000000000E+00  0.74505805969E-08  0.10566000000E+00  0.10566000000E+00 0. -1.
     999900   -1    0    0    0    0 -0.00000000000E+00 -0.00000000000E+00 -0.74505805969E-08  0.93827000000E+00  0.93827000000E+00 0. -1.
     999902    2    1    2    0    0  0.12147694067E-01 -0.11572637688E-01 -0.16655410755E-01  0.10202890372E+01  0.10200151099E+01 0.  0.
     999903    2    3    3    0    0  0.74153909410E-01 -0.96184839558E-01  0.47346869849E-01  0.13175075026E+00  0.19136574120E-01 0.  0.
         14    1    1    2    0    0 -0.12147694067E-01  0.11572637688E-01  0.16655410755E-01  0.23640962790E-01  0.00000000000E+00 0. -1.
     999901    1    3    3    0    0 -0.62006215343E-01  0.84612201870E-01 -0.64002280604E-01  0.88853828695E+00  0.88000000000E+00 0. -1.
        -11    1    4    4    0    0  0.32497687460E-01 -0.36684926957E-01  0.97850200936E-02  0.49978908504E-01  0.51100000000E-03 0. -1.
         11    1    4    4    0    0  0.41656221950E-01 -0.59499912601E-01  0.37561849755E-01  0.81771841760E-01  0.51100000000E-03 0.  1.
</event>
<event>
 8    1  0.1166736E+005  0.1043930E+01  0.7957747E-01            NaN
         13   -1    0    0    0    0  0.00000000000E+00  0.00000000000E+00  0.74505805969E-08  0.10566000000E+00  0.10566000000E+00 0.  1.
     999900   -1    0    0    0    0 -0.00000000000E+00 -0.00000000000E+00 -0.74505805969E-08  0.93827000000E+00  0.93827000000E+00 0. -1.
     999902    2    1    2    0    0  0.70009357975E-02  0.10791863660E-01  0.19767972679E-01  0.10203450436E+01  0.10200724278E+01 0.  0.
     999903    2    3    3    0    0 -0.51163089929E-01  0.11448864597E+00  0.33648621550E-01  0.13224102440E+00  0.25102728425E-01 0.  0.
         14    1    1    2    0    0 -0.70009357975E-02 -0.10791863660E-01 -0.19767972679E-01  0.23584956373E-01  0.00000000000E+00 0. -1.
     999901    1    3    3    0    0  0.58164025726E-01 -0.10369678231E+00 -0.13880648871E-01  0.88810401923E+00  0.88000000000E+00 0.  1.
        -11    1    4    4    0    0 -0.20043475905E-01  0.31709121551E-01  0.20737735087E-01  0.42866351529E-01  0.51100000000E-03 0.  1.
         11    1    4    4    0    0 -0.31119614024E-01  0.82779524423E-01  0.12910886463E-01  0.89374672872E-01  0.51100000000E-03 0. -1.
</event>
<event>
 8    1  0.1166736E+005  0.1043930E+01  0.7957747E-01            NaN
         13   -1    0    0    0    0  0.00000000000E+00  0.00000000000E+00  0.74505805969E-08  0.10566000000E+00  0.10566000000E+00 0. -1.
     999900   -1    0    0    0    0 -0.00000000000E+00 -0.00000000000E+00 -0.74505805969E-08  0.93827000000E+00  0.93827000000E+00 0. -1.
     999902    2    1    2    0    0  0.20171078932E-01  0.24165705960E-02  0.13484089299E-01  0.10195469546E+01  0.10192553457E+01 0.  0.
     999903    2    3    3    0    0 -0.33603073646E-01 -0.52532283994E-01 -0.10949297951E+00  0.12767566593E+00  0.20580468590E-01 0.  0.
         14    1    1    2    0    0 -0.20171078932E-01 -0.24165705960E-02 -0.13484089299E-01  0.24383045399E-01  0.00000000000E+00 0.  1.
     999901    1    3    3    0    0  0.53774152578E-01  0.54948854590E-01  0.12297706881E+00  0.89187128867E+00  0.88000000000E+00 0.  1.
        -11    1    4    4    0    0 -0.54816729488E-02 -0.49087753543E-02 -0.29604950272E-01  0.30509982225E-01  0.51100000000E-03 0. -1.
         11    1    4    4    0    0 -0.28121400697E-01 -0.47623508640E-01 -0.79888029241E-01  0.97165683703E-01  0.51100000000E-03 0.  1.
</event>
<event>
 8    1  0.1166736E+005  0.1043930E+01  0.7957747E-01            NaN
         13   -1    0    0    0    0  0.00000000000E+00  0.00000000000E+00  0.74505805969E-08  0.10566000000E+00  0.10566000000E+00 0. -1.
     999900   -1    0    0    0    0 -0.00000000000E+00 -0.00000000000E+00 -0.74505805969E-08  0.93827000000E+00  0.93827000000E+00 0. -1.
     999902    2    1    2    0    0  0.20779978091E-02  0.23516212292E-01  0.24005981918E-02  0.10202004154E+01  0.10199244062E+01 0.  0.
     999903    2    3    3    0    0 -0.57717683636E-01  0.11219874343E+00  0.30115875293E-01  0.13329103361E+00  0.30653624024E-01 0.  0.
         14    1    1    2    0    0 -0.20779978091E-02 -0.23516212292E-01 -0.24005981918E-02  0.23729584639E-01  0.00000000000E+00 0.  1.
     999901    1    3    3    0    0  0.59795681445E-01 -0.88682531135E-01 -0.27715277101E-01  0.88690938175E+00  0.88000000000E+00 0. -1.
        -11    1    4    4    0    0 -0.45005944832E-01  0.90007696845E-01  0.36290001106E-01  0.10697731471E+00  0.51100000000E-03 0.  1.
         11    1    4    4    0    0 -0.12711738804E-01  0.22191046582E-01 -0.61741258132E-02  0.26313718901E-01  0.51100000000E-03 0. -1.
</event>
<event>
 8    1  0.1166736E+005  0.1043930E+01  0.7957747E-01            NaN
         13   -1    0    0    0    0  0.00000000000E+00  0.00000000000E+00  0.74505805969E-08  0.10566000000E+00  0.10566000000E+00 0.  1.
     999900   -1    0    0    0    0 -0.00000000000E+00 -0.00000000000E+00 -0.74505805969E-08  0.93827000000E+00  0.93827000000E+00 0.  1.
     999902    2    1    2    0    0 -0.18911805069E-01 -0.25295000004E-02 -0.13439582210E-01  0.10205916815E+01  0.10203248028E+01 0.  0.
     999903    2    3    3    0    0 -0.31863629220E-02  0.42031228608E-01 -0.12398750753E+00  0.13241726626E+00  0.19612579995E-01 0.  0.
         14    1    1    2    0    0  0.18911805069E-01  0.25295000004E-02  0.13439582210E-01  0.23338318517E-01  0.00000000000E+00 0.  1.
     999901    1    3    3    0    0 -0.15725442147E-01 -0.44560728608E-01  0.11054792532E+00  0.88817441522E+00  0.88000000000E+00 0. -1.
        -11    1    4    4    0    0  0.59407263402E-02  0.31607956257E-01 -0.77598655419E-01  0.84000997447E-01  0.51100000000E-03 0.  1.
         11    1    4    4    0    0 -0.91270892622E-02  0.10423272351E-01 -0.46388852108E-01  0.48416268813E-01  0.51100000000E-03 0. -1.
</event>
<event>
 8    1  0.1166736E+005  0.1043930E+01  0.7957747E-01            NaN
         13   -1    0    0    0    0  0.00000000000E+00  0.00000000000E+00  0.74505805969E-08  0.10566000000E+00  0.10566000000E+00 0.  1.
     999900   -1    0    0    0    0 -0.00000000000E+00 -0.00000000000E+00 -0.74505805969E-08  0.93827000000E+00  0.93827000000E+00 0.  1.
     999902    2    1    2    0    0 -0.24064989068E-02 -0.23201951331E-01 -0.40823148370E-02  0.10202490567E+01  0.10199741911E+01 0.  0.
     999903    2    3    3    0    0 -0.80725460463E-01  0.78744872297E-01  0.58678621310E-01  0.12869650651E+00  0.20056303490E-01 0.  0.
         14    1    1    2    0    0  0.24064989068E-02  0.23201951331E-01  0.40823148370E-02  0.23680943329E-01  0.00000000000E+00 0. -1.
     999901    1    3    3    0    0  0.78318961556E-01 -0.10194682363E+00 -0.62760936147E-01  0.89155255016E+00  0.88000000000E+00 0. -1.
        -11    1    4    4    0    0 -0.55452890959E-01  0.57658330371E-01  0.51071385931E-01  0.94910767350E-01  0.51100000000E-03 0. -1.
         11    1    4    4    0    0 -0.25272569503E-01  0.21086541926E-01  0.76072353794E-02  0.33785739163E-01  0.51100000000E-03 0.  1.
</event>
<event>
 8    1  0.1166736E+005  0.1043930E+01  0.7957747E-01            NaN
         13   -1    0    0    0    0  0.00000000000E+00  0.00000000000E+00  0.74505805969E-08  0.10566000000E+00  0.10566000000E+00 0.  1.
     999900   -1    0    0    0    0 -0.00000000000E+00 -0.00000000000E+00 -0.74505805969E-08  0.93827000000E+00  0.93827000000E+00 0.  1.
     999902    2    1    2    0    0  0.16986661510E-01  0.71232349693E-02 -0.76964970063E-02  0.10239669538E+01  0.10237723377E+01 0.  0.
     999903    2    3    3    0    0 -0.58775379326E-01  0.11326164667E+00  0.32963502333E-01  0.13342864202E+00  0.20829407198E-01 0.  0.
         14    1    1    2    0    0 -0.16986661510E-01 -0.71232349693E-02  0.76964970063E-02  0.19963046157E-01  0.00000000000E+00 0. -1.
     999901    1    3    3    0    0  0.75762040836E-01 -0.10613841170E+00 -0.40659999339E-01  0.89053831182E+00  0.88000000000E+00 0. -1.
        -11    1    4    4    0    0 -0.12629925811E-01  0.42918055431E-01  0.16605486020E-01  0.47722927351E-01  0.51100000000E-03 0.  1.
         11    1    4    4    0    0 -0.46145453514E-01  0.70343591243E-01  0.16358016314E-01  0.85705714674E-01  0.51100000000E-03 0. -1.
</event>
<event>
 8    1  0.1166736E+005  0.1043930E+01  0.7957747E-01            NaN
         13   -1    0    0    0    0  0.00000000000E+00  0.00000000000E+00  0.74505805969E-08  0.10566000000E+00  0.10566000000E+00 0. -1.
     999900   -1    0    0    0    0 -0.00000000000E+00 -0.00000000000E+00 -0.74505805969E-08  0.93827000000E+00  0.93827000000E+00 0. -1.
     999902    2    1    2    0    0 -0.18298252507E-01  0.14553844473E-01 -0.33471385584E-02  0.10203112835E+01  0.10200378774E+01 0.  0.
     999903    2    3    3    0    0 -0.73466869320E-01 -0.48703735223E-01 -0.95245585311E-01  0.13155348622E+00  0.21567649440E-01 0.  0.
         14    1    1    2    0    0  0.18298252507E-01 -0.14553844473E-01  0.33471385584E-02  0.23618716525E-01  0.00000000000E+00 0. -1.
     999901    1    3    3    0    0  0.55168616813E-01  0.63257579696E-01  0.91898446753E-01  0.88875779726E+00  0.88000000000E+00 0.  1.
        -11    1    4    4    0    0 -0.57463124739E-01 -0.27829635055E-01 -0.73998628482E-01  0.97737185504E-01  0.51100000000E-03 0.  1.
         11    1    4    4    0    0 -0.16003744581E-01 -0.20874100168E-01 -0.21246956829E-01  0.33816300714E-01  0.51100000000E-03 0. -1.
</event>
<event>
 8    1  0.1166736E+005  0.1043930E+01  0.7957747E-01            NaN
         13   -1    0    0    0    0  0.00000000000E+00  0.00000000000E+00  0.74505805969E-08  0.10566000000E+00  0.10566000000E+00 0.  1.
     999900   -1    0    0    0    0 -0.00000000000E+00 -0.00000000000E+00 -0.74505805969E-08  0.93827000000E+00  0.93827000000E+00 0.  1.
     999902    2    1    2    0    0  0.14679025052E-02 -0.96350873644E-02 -0.22443049797E-01  0.10194620591E+01  0.10191683913E+01 0.  0.
     999903    2    3    3    0    0 -0.53252378438E-01  0.47728949868E-01 -0.10876523816E+00  0.13169155831E+00  0.19973007665E-01 0.  0.
         14    1    1    2    0    0 -0.14679025052E-02  0.96350873644E-02  0.22443049797E-01  0.24467940871E-01  0.00000000000E+00 0. -1.
     999901    1    3    3    0    0  0.54720280943E-01 -0.57364037232E-01  0.86322188359E-01  0.88777050081E+00  0.88000000000E+00 0. -1.
        -11    1    4    4    0    0 -0.40090851403E-01  0.23518607552E-01 -0.63488122218E-01  0.78685475478E-01  0.51100000000E-03 0.  1.
         11    1    4    4    0    0 -0.13161527034E-01  0.24210342316E-01 -0.45277115938E-01  0.53006082836E-01  0.51100000000E-03 0. -1.
</event>
<event>
 8    1  0.1166736E+005  0.1043930E+01  0.7957747E-01            NaN
         13   -1    0    0    0    0  0.00000000000E+00  0.00000000000E+00  0.74505805969E-08  0.10566000000E+00  0.10566000000E+00 0.  1.
     999900   -1    0    0    0    0 -0.00000000000E+00 -0.00000000000E+00 -0.74505805969E-08  0.93827000000E+00  0.93827000000E+00 0.  1.
     999902    2    1    2    0    0 -0.20789219667E-01 -0.97033322719E-02 -0.22526095783E-02  0.10208774392E+01  0.10206171296E+01 0.  0.
     999903    2    3    3    0    0 -0.42624149738E-01 -0.23688431506E-01  0.12074846788E+00  0.13194458892E+00  0.21241989600E-01 0.  0.
         14    1    1    2    0    0  0.20789219667E-01  0.97033322719E-02  0.22526095783E-02  0.23052560844E-01  0.00000000000E+00 0.  1.
     999901    1    3    3    0    0  0.21834930071E-01  0.13985099234E-01 -0.12300107746E+00  0.88893285024E+00  0.88000000000E+00 0.  1.
        -11    1    4    4    0    0 -0.24906181299E-01 -0.17405129890E-02  0.57705265890E-01  0.62876912176E-01  0.51100000000E-03 0.  1.
         11    1    4    4    0    0 -0.17717968439E-01 -0.21947918517E-01  0.63043201989E-01  0.69067676745E-01  0.51100000000E-03 0. -1.
</event>
<event>
 8    1  0.1166736E+005  0.1043930E+01  0.7957747E-01            NaN
         13   -1    0    0    0    0  0.00000000000E+00  0.00000000000E+00  0.74505805969E-08  0.10566000000E+00  0.10566000000E+00 0. -1.
     999900   -1    0    0    0    0 -0.00000000000E+00 -0.00000000000E+00 -0.74505805969E-08  0.93827000000E+00  0.93827000000E+00 0. -1.
     999902    2    1    2    0    0 -0.19798926940E-03 -0.24000968047E-01  0.25142629817E-02  0.10197968861E+01  0.10195112956E+01 0.  0.
     999903    2    3    3    0    0 -0.31751179757E-01 -0.12698265600E-01 -0.12400097127E+00  0.13011747229E+00  0.19619693009E-01 0.  0.
         14    1    1    2    0    0  0.19798926940E-03  0.24000968047E-01 -0.25142629817E-02  0.24133113875E-01  0.00000000000E+00 0.  1.
     999901    1    3    3    0    0  0.31553190487E-01 -0.11302702447E-01  0.12651523425E+00  0.88967941384E+00  0.88000000000E+00 0.  1.
        -11    1    4    4    0    0 -0.21090849065E-01 -0.15046416887E-01 -0.62594490257E-01  0.67746216919E-01  0.51100000000E-03 0. -1.
         11    1    4    4    0    0 -0.10660330692E-01  0.23481512870E-02 -0.61406481010E-01  0.62371255366E-01  0.51100000000E-03 0.  1.
</event>
<event>
 8    1  0.1166736E+005  0.1043930E+01  0.7957747E-01            NaN
         13   -1    0    0    0    0  0.00000000000E+00  0.00000000000E+00  0.74505805969E-08  0.10566000000E+00  0.10566000000E+00 0.  1.
     999900   -1    0    0    0    0 -0.00000000000E+00 -0.00000000000E+00 -0.74505805969E-08  0.93827000000E+00  0.93827000000E+00 0.  1.
     999902    2    1    2    0    0 -0.65182685464E-02  0.22634227749E-01 -0.22075847315E-02  0.10202726645E+01  0.10199983532E+01 0.  0.
     999903    2    3    3    0    0  0.11169025399E+00  0.20850950674E-01 -0.61201881284E-01  0.13040932565E+00  0.18746918807E-01 0.  0.
         14    1    1    2    0    0  0.65182685464E-02 -0.22634227749E-01  0.22075847315E-02  0.23657335459E-01  0.00000000000E+00 0. -1.
     999901    1    3    3    0    0 -0.11820852253E+00  0.17832770757E-02  0.58994296552E-01  0.88986333889E+00  0.88000000000E+00 0. -1.
        -11    1    4    4    0    0  0.54974411631E-01  0.17591067681E-01 -0.24075110978E-01  0.62542015365E-01  0.51100000000E-03 0. -1.
         11    1    4    4    0    0  0.56715842354E-01  0.32598829929E-02 -0.37126770306E-01  0.67867310286E-01  0.51100000000E-03 0.  1.
</event>
<event>
 8    1  0.1166736E+005  0.1043930E+01  0.7957747E-01            NaN
         13   -1    0    0    0    0  0.00000000000E+00  0.00000000000E+00  0.74505805969E-08  0.10566000000E+00  0.10566000000E+00 0.  1.
     999900   -1    0    0    0    0 -0.00000000000E+00 -0.00000000000E+00 -0.74505805969E-08  0.93827000000E+00  0.93827000000E+00 0.  1.
     999902    2    1    2    0    0 -0.10192383468E-01  0.17357948512E-01 -0.12454303302E-01  0.10202594967E+01  0.10199848763E+01 0.  0.
     999903    2    3    3    0    0  0.95055979124E-01 -0.60937486347E-01 -0.59707450442E-01  0.12928236292E+00  0.19998332784E-01 0.  0.
         14    1    1    2    0    0  0.10192383468E-01 -0.17357948512E-01  0.12454303302E-01  0.23670503333E-01  0.00000000000E+00 0.  1.
     999901    1    3    3    0    0 -0.10524836259E+00  0.78295434859E-01  0.47253147140E-01  0.89097713375E+00  0.88000000000E+00 0. -1.
        -11    1    4    4    0    0  0.43291777640E-01 -0.19459895168E-01 -0.17149252203E-01  0.50470025790E-01  0.51100000000E-03 0.  1.
         11    1    4    4    0    0  0.51764201484E-01 -0.41477591179E-01 -0.42558198239E-01  0.78812337129E-01  0.51100000000E-03 0. -1.
</event>
<event>
 8    1  0.1166736E+005  0.1043930E+01  0.7957747E-01            NaN
         13   -1    0    0    0    0  0.00000000000E+00  0.00000000000E+00  0.74505805969E-08  0.10566000000E+00  0.10566000000E+00 0.  1.
     999900   -1    0    0    0    0 -0.00000000000E+00 -0.00000000000E+00 -0.74505805969E-08  0.93827000000E+00  0.93827000000E+00 0. -1.
     999902    2    1    2    0    0 -0.66299019552E-02  0.20474007218E-01  0.10521017681E-01  0.10199752012E+01  0.10196938652E+01 0.  0.
     999903    2    3    3    0    0  0.43782550365E-02  0.83808807876E-02  0.12994330244E+00  0.13175838911E+00  0.19636775993E-01 0.  0.
         14    1    1    2    0    0  0.66299019552E-02 -0.20474007218E-01 -0.10521017681E-01  0.23954798779E-01  0.00000000000E+00 0. -1.
     999901    1    3    3    0    0 -0.11008156992E-01  0.12093126431E-01 -0.11942228476E+00  0.88821681211E+00  0.88000000000E+00 0. -1.
        -11    1    4    4    0    0  0.27837304904E-03  0.12335418899E-01  0.46261818947E-01  0.47881698636E-01  0.51100000000E-03 0.  1.
         11    1    4    4    0    0  0.40998819875E-02 -0.39545381114E-02  0.83681483491E-01  0.83876690470E-01  0.51100000000E-03 0. -1.
</event>
